
Running Job 1 of 1 ./8/11.qcin
qchem ./8/11.qcin_35721.0 /tmpu/cab_g/afmv_a/scratch_qchem/qchem35721/ 1
/tmpu/appuserlic/qchem4.4/serial-multicore/exe/qcprog.exe_s ./8/11.qcin_35721.0 /tmpu/cab_g/afmv_a/scratch_qchem/qchem35721/
Check license passed

                  Welcome to Q-Chem
     A Quantum Leap Into The Future Of Chemistry


 Q-Chem 4.4, Q-Chem, Inc., Pleasanton, CA (2016)

 Y. Shao,  Z. Gan,  E. Epifanovsky,  A. T. B. Gilbert,  M. Wormit,  
 J. Kussmann,  A. W. Lange,  A. Behn,  J. Deng,  X. Feng,  D. Ghosh,  
 M. Goldey,  P. R. Horn,  L. D. Jacobson,  I. Kaliman,  F. Rob,  
 R. Z. Khaliullin,  T. Kus,  A. Landau,  J. Liu,  E. I. Proynov,  Y. M. Rhee,  
 R. M. Richard,  M. A. Rohrdanz,  R. P. Steele,  E. J. Sundstrom,  
 H. L. Woodcock III,  P. M. Zimmerman,  D. Zuev,  B. Albrecht,  E. Alguire,  
 B. Austin,  S. A. Baeppler,  G. J. O. Beran,  Y. A. Bernard,  E. Berquist,  
 K. Brandhorst,  K. B. Bravaya,  S. T. Brown,  D. Casanova,  C.-M. Chang,  
 Y. Chen,  S. H. Chien,  K. D. Closser,  M. P. Coons,  D. L. Crittenden,  
 S. Dasgupta,  M. Diedenhofen,  R. A. DiStasio Jr.,  H. Do,  A. D. Dutoi,  
 R. G. Edgar,  P.-T. Fang,  S. Fatehi,  Q. Feng,  L. Fusti-Molnar,  
 A. Ghysels,  A. Golubeva-Zadorozhnaya,  J. Gomes,  A. Gunina,  
 M. W. D. Hanson-Heine,  P. H. P. Harbach,  A. W. Hauser,  J. E. Herr,  
 E. G. Hohenstein,  Z. C. Holden,  K. Hui,  T.-C. Jagau,  H. Ji,  B. Kaduk,  
 K. Khistyaev,  Jaehoon Kim,  Jihan Kim,  R. A. King,  P. Klunzinger,  
 K. Koh,  D. Kosenkov,  T. Kowalczyk,  C. M. Krauter,  A. Kunitsa,  
 K. U. Lao,  A. Laurent,  K. V. Lawler,  J. Lee,  D. Lefrancois,  S. Lehtola,  
 S. V. Levchenko,  C. Y. Lin,  Y.-S. Lin,  F. Liu,  E. Livshits,  
 R. C. Lochan,  A. Luenser,  P. Manohar,  S. F. Manzer,  S.-P. Mao,  Y. Mao,  
 N. Mardirossian,  A. V. Marenich,  L. A. Martinez-Martinez,  S. A. Maurer,  
 N. J. Mayhall,  J.-M. Mewes,  A. F. Morrison,  K. Nanda,  T. S. Nguyen-Beck,  
 C. M. Oana,  R. Olivares-Amaya,  D. P. O'Neill,  J. A. Parkhill,  
 T. M. Perrine,  R. Peverati,  P. A. Pieniazek,  F. Plasser,  A. Prociuk,  
 D. R. Rehn,  E. Rosta,  N. J. Russ,  N. Sergueev,  S. M. Sharada,  
 S. Sharma,  D. W. Small,  A. Sodt,  T. Stauch,  T. Stein,  D. Stuck,  
 Y.-C. Su,  A. J. W. Thom,  T. Tsuchimochi,  L. Vogt,  O. Vydrov,  T. Wang,  
 M. A. Watson,  J. Wenzel,  A. White,  C. F. Williams,  V. Vanovschi,  
 K. Yao,  S. Yeganeh,  S. R. Yost,  Z.-Q. You,  I. Y. Zhang,  X. Zhang,  
 Y. Zhao,  B. R. Brooks,  G. K. L. Chan,  D. M. Chipman,  C. J. Cramer,  
 W. A. Goddard III,  M. S. Gordon,  W. J. Hehre,  A. Klamt,  
 H. F. Schaefer III,  M. W. Schmidt,  C. D. Sherrill,  D. G. Truhlar,  
 A. Warshel,  X. Xu,  A. Aspuru-Guzik,  R. Baer,  A. T. Bell,  N. A. Besley,  
 J.-D. Chai,  A. Dreuw,  B. D. Dunietz,  T. R. Furlani,  S. R. Gwaltney,  
 C.-P. Hsu,  Y. Jung,  J. Kong,  D. S. Lambrecht,  W. Liang,  C. Ochsenfeld,  
 V. A. Rassolov,  L. V. Slipchenko,  J. E. Subotnik,  T. Van Voorhis,  
 J. M. Herbert,  A. I. Krylov,  P. M. W. Gill,  M. Head-Gordon

 Contributors to earlier versions of Q-Chem not listed above: 
 R. D. Adamson,  J. Baker,  E. F. C. Byrd,  A. K. Chakraborty,  C.-L. Cheng,  
 H. Dachsel,  R. J. Doerksen,  G. Hawkins,  A. Heyden,  S. Hirata,  
 G. Kedziora,  F. J. Keil,  C. Kelley,  P. P. Korambath,  W. Kurlancheek,  
 A. M. Lee,  M. S. Lee,  D. Liotard,  I. Lotan,  P. E. Maslen,  N. Nair,  
 D. Neuhauser,  R. Olson,  B. Peters,  J. Ritchie,  N. E. Schultz,  
 N. Shenvi,  A. C. Simmonett,  K. S. Thanthiriwatte,  Q. Wu,  W. Zhang

 Please cite Q-Chem as follows:
 Y. Shao et al., Mol. Phys. 113, 184-215 (2015)
 DOI: 10.1080/00268976.2014.952696

 Q-Chem 4.4.2 for Intel X86 Linux

 Parts of Q-Chem use Armadillo 5.200.1 (Boston Tea Smuggler).
 http://arma.sourceforge.net/

 Q-Chem begins on Sat Oct 13 02:59:08 2018  

Host: 
0

     Scratch files written to /tmpu/cab_g/afmv_a/scratch_qchem/qchem35721//
 Dec716 11556_ 22328  22283 4050   
Processing $rem in /tmpu/appuserlic/qchem4.4/serial-multicore/config/preferences.
 MEM_TOTAL  2000 
FILE_GEOM_ORG=        593

Checking the input file for inconsistencies... 	...done.

--------------------------------------------------------------
User input:
--------------------------------------------------------------
$comment
SP
$end

$rem
MEM_STATIC 5000
MEM_TOTAL 20000
JOBTYPE SP
EXCHANGE B3LYP
BASIS 6-31g(d,p)
$end

$molecule
0 1
O         -18.763000     -4.496000     10.623000
C         -20.066000     -3.867000     10.682000
H         -20.134000     -3.058000      9.944000
H         -20.325000     -3.437000     11.658000
H         -20.929000     -4.504000     10.455000
O         -18.978000     -6.053000     12.392000
C         -18.287000     -5.417000     11.606000
C         -16.704000     -5.586000     11.410000
H         -16.278000     -5.938000     12.358000
H         -16.207000     -4.608000     11.387000
C         -16.212000     -6.277000     10.200000
H         -16.518000     -5.636000      9.365000
H         -15.124000     -6.213000     10.078000
C         -16.731000     -7.731000     10.076000
H         -16.143000     -8.435000     10.679000
H         -17.711000     -7.776000     10.568000
C         -16.850000     -8.312000      8.693000
C         -17.967000     -7.784000      7.956000
C         -17.688000     -6.905000      6.904000
H         -16.678000     -6.811000      6.515000
C         -18.621000     -5.970000      6.392000
H         -18.268000     -5.321000      5.597000
C         -19.913000     -5.980000      6.834000
H         -20.660000     -5.292000      6.449000
C         -20.255000     -6.950000      7.848000
H         -21.291000     -7.091000      8.142000
C         -19.339000     -7.895000      8.382000
H         -19.670000     -8.643000      9.097000
C         -17.575000    -13.045000      6.219000
C         -16.298000    -11.776000      4.548000
C         -12.460000    -14.058000      4.925000
C         -14.957000    -13.203000     10.632000
C         -10.797000    -11.726000      7.018000
C         -17.319000    -11.844000      5.534000
C         -12.167000    -13.067000     10.113000
C         -14.730000    -14.881000      4.889000
C         -13.960000     -9.229000      6.323000
C         -14.248000    -11.994000     10.691000
C         -15.588000     -8.903000      8.045000
C         -13.205000     -9.159000      7.536000
C         -12.682000    -10.695000      9.835000
C         -11.241000    -13.026000      9.064000
C         -16.132000     -9.983000      5.758000
C         -11.281000    -14.121000      6.834000
C         -16.566000     -9.829000      8.599000
C         -16.169000    -10.761000      9.766000
C         -10.895000    -12.892000      6.227000
C         -14.645000    -15.733000      8.286000
C         -13.110000    -15.671000      6.598000
C         -14.425000    -15.636000      6.076000
C         -15.973000    -14.228000      4.753000
C         -16.839000    -11.971000      9.597000
C         -15.325000     -9.139000      6.588000
C         -15.651000    -12.986000      4.150000
C         -12.894000    -11.915000     10.450000
C         -15.647000    -10.578000      4.617000
C         -12.017000     -9.915000      7.628000
C         -16.340000    -14.354000      9.231000
C         -13.696000    -14.136000      4.293000
C         -14.146000     -9.081000      8.620000
C         -16.607000    -15.011000      6.944000
C         -11.750000    -10.653000      8.828000
C         -13.356000     -9.866000      5.248000
C         -12.381000    -15.013000      8.837000
C         -12.907000    -14.263000      9.936000
C         -12.179000    -10.558000      5.334000
C         -16.235000    -13.217000     10.075000
C         -14.886000    -10.785000     10.271000
C         -15.148000    -15.043000      9.347000
C         -17.452000    -10.726000      7.742000
C         -13.568000    -11.727000      4.019000
C         -13.930000     -9.969000      9.738000
C         -11.505000    -10.623000      6.543000
C         -17.091000    -14.312000      8.064000
C         -11.690000    -12.881000      5.041000
C         -16.924000    -14.255000      5.797000
C         -12.131000    -14.855000      5.985000
C         -14.237000    -10.550000      4.377000
C         -12.261000    -11.685000      4.545000
C         -17.213000    -10.675000      6.330000
C         -17.625000    -11.961000      8.422000
C         -13.264000    -15.719000      7.977000
C         -14.265000    -12.949000      3.889000
C         -10.998000    -11.787000      8.403000
C         -14.279000    -14.348000     10.240000
C         -11.413000    -14.193000      8.260000
C         -17.712000    -13.116000      7.633000
C         -15.383000    -15.713000      7.077000
O         -16.124000    -18.160000      3.341000
C         -14.675000    -17.986000      3.230000
H         -14.413000    -17.865000      2.171000
H         -14.124000    -18.898000      3.487000
H         -14.387000    -17.087000      3.789000
O         -16.677000    -16.360000      2.072000
C         -16.978000    -17.318000      2.717000
C         -18.453000    -17.800000      2.957000
H         -18.463000    -18.827000      2.572000
H         -19.106000    -17.130000      2.385000
C         -18.780000    -17.785000      4.468000
H         -17.978000    -18.312000      4.998000
H         -18.579000    -16.770000      4.833000
C         -20.179000    -18.223000      4.966000
H         -20.925000    -17.504000      4.608000
H         -20.395000    -19.235000      4.601000
C         -20.291000    -18.193000      6.485000
C         -19.307000    -19.083000      7.273000
C         -18.092000    -18.544000      7.800000
H         -17.937000    -17.479000      7.655000
C         -17.211000    -19.367000      8.524000
H         -16.386000    -18.877000      9.031000
C         -17.560000    -20.672000      8.806000
H         -16.921000    -21.205000      9.503000
C         -18.704000    -21.219000      8.342000
H         -18.963000    -22.238000      8.611000
C         -19.564000    -20.465000      7.497000
H         -20.468000    -20.986000      7.194000
C         -23.572000    -18.721000     10.755000
C         -21.775000    -17.270000     11.531000
C         -24.350000    -13.475000     11.762000
C         -25.644000    -16.912000      6.536000
C         -23.198000    -12.345000      8.670000
C         -22.210000    -18.396000     10.785000
C         -25.577000    -14.080000      6.594000
C         -24.872000    -15.752000     12.366000
C         -20.245000    -15.152000      8.538000
C         -24.632000    -16.180000      5.827000
C         -20.799000    -16.951000      7.188000
C         -20.848000    -14.586000      7.391000
C         -23.253000    -14.413000      5.964000
C         -25.148000    -12.996000      7.372000
C         -20.618000    -17.254000      9.642000
C         -25.261000    -12.669000      9.842000
C         -21.699000    -18.139000      7.051000
C         -23.001000    -17.929000      6.425000
C         -23.895000    -12.335000      9.865000
C         -26.998000    -16.250000      9.646000
C         -26.366000    -14.483000     10.896000
C         -26.089000    -15.647000     11.646000
C         -24.119000    -16.933000     12.352000
C         -23.984000    -18.587000      7.161000
C         -20.287000    -16.507000      8.502000
C         -22.748000    -16.549000     12.319000
C         -24.583000    -14.785000      5.885000
C         -20.849000    -16.572000     10.849000
C         -21.625000    -13.416000      7.465000
C         -26.067000    -18.126000      8.410000
C         -24.018000    -14.640000     12.458000
C         -21.197000    -15.644000      6.529000
C         -25.677000    -17.976000     10.780000
C         -22.824000    -13.290000      6.720000
C         -20.498000    -14.483000      9.804000
C         -26.772000    -14.114000      8.573000
C         -26.518000    -14.787000      7.320000
C         -21.245000    -13.336000      9.845000
C         -25.312000    -18.082000      7.226000
C         -23.353000    -16.711000      5.845000
C         -26.796000    -16.925000      8.457000
C         -22.058000    -18.726000      8.351000
C         -21.708000    -14.455000     11.745000
C         -22.475000    -15.611000      5.916000
C         -21.870000    -12.805000      8.641000
C         -25.515000    -18.701000      9.566000
C         -23.290000    -12.810000     11.054000
C         -24.511000    -18.031000     11.531000
C         -25.546000    -13.408000     10.974000
C         -20.728000    -15.188000     10.979000
C         -21.989000    -13.319000     10.998000
C         -21.537000    -18.281000      9.589000
C         -23.418000    -19.039000      8.384000
C         -27.037000    -14.851000      9.712000
C         -22.736000    -15.125000     12.427000
C         -23.795000    -12.669000      7.466000
C         -26.617000    -16.208000      7.312000
C         -25.875000    -12.984000      8.618000
C         -24.195000    -19.092000      9.538000
C         -26.405000    -16.758000     10.804000
$end

--------------------------------------------------------------
 ----------------------------------------------------------------
             Standard Nuclear Orientation (Angstroms)
    I     Atom           X                Y                Z
 ----------------------------------------------------------------
    1      O       4.0959835558    -8.6425133059     0.1262967870
    2      C       3.2606006089    -9.7147004371     0.6257776052
    3      H       3.6896209050   -10.1386450816     1.5422717535
    4      H       3.1108878968   -10.5455060979    -0.0755818303
    5      H       2.2373681998    -9.4459671428     0.9136054245
    6      O       2.9234650496    -8.0974432196    -1.8556048134
    7      C       3.9337857572    -8.0529707945    -1.1649187261
    8      C       5.2511956071    -7.1998428451    -1.4957812191
    9      H       5.3235600762    -7.0917629456    -2.5853527491
   10      H       6.1546286091    -7.8063166887    -1.3542881522
   11      C       5.5091265569    -5.9692540745    -0.7193999320
   12      H       5.6642817938    -6.3125235425     0.3100829114
   13      H       6.4993638506    -5.5379176669    -0.9094078413
   14      C       4.3779249671    -4.9193208100    -0.8493079893
   15      H       4.4682509455    -4.3223750923    -1.7660773320
   16      H       3.4405084265    -5.4623783090    -1.0248864115
   17      C       4.1824047755    -3.9616530867     0.2948315941
   18      C       3.5671322665    -4.5746544998     1.4417016858
   19      C       4.3728899932    -4.7987204302     2.5631895121
   20      H       5.3459402322    -4.3232402899     2.6489150539
   21      C       4.0821544102    -5.7617089927     3.5606782836
   22      H       4.8069601461    -5.8609832338     4.3623242593
   23      C       2.8978522990    -6.4409244592     3.5319927573
   24      H       2.6326189380    -7.1707932831     4.2912824017
   25      C       1.9989243375    -6.1520585428     2.4390403327
   26      H       0.9935885132    -6.5630307897     2.4352072367
   27      C       2.2671558685    -5.1958764647     1.4236563268
   28      H       1.5246808676    -4.9750281278     0.6619169455
   29      C       1.6153994720     0.6251249357     1.4862765759
   30      C       3.5569441718     0.7115368814     2.9883645075
   31      C       5.7371757877     4.0200937988     0.8955343123
   32      C       3.2134488462     0.1496242393    -3.3689880189
   33      C       8.0158829701     1.9573291729    -0.8756059065
   34      C       2.5063066671    -0.0150287756     2.3658501064
   35      C       5.7670625708     1.3568480859    -3.6749692762
   36      C       3.3793235101     3.8045894191     1.3705243115
   37      C       6.5668462399    -1.1384922987     1.3691179007
   38      C       4.4004808206    -0.5948924574    -3.3019583225
   39      C       5.0799501131    -2.7157335582     0.3574885627
   40      C       7.0912357790    -1.3495105180     0.0550475364
   41      C       6.4969833504    -0.7240768293    -2.6233704206
   42      C       6.7308922025     2.0913609855    -2.9741973866
   43      C       4.3984275087    -1.1726737688     2.3189162127
   44      C       6.4713340370     3.8286863124    -1.2169679573
   45      C       3.7129310594    -2.5466817970    -0.1153289591
   46      C       3.4521551251    -2.0491598743    -1.5549781693
   47      C       7.4778428814     3.1882126265    -0.4393951929
   48      C       2.5856941539     3.2692520967    -1.9993873188
   49      C       4.1736740918     4.4726257430    -0.8860030256
   50      C       3.1210846727     4.1098756161    -0.0122743147
   51      C       2.6337752106     2.8100656260     2.0376331168
   52      C       2.3132863542    -1.2466311872    -1.5329185016
   53      C       5.3911572637    -1.8638356638     1.5512783629
   54      C       3.5905121233     2.1314361081     2.8338576186
   55      C       5.6445353462    -0.0239579434    -3.4568780366
   56      C       4.6870729586    -0.0509635434     3.0602535007
   57      C       7.7455962001    -0.2746929693    -0.5836414930
   58      C       1.6510917589     1.0796941512    -1.9926518351
   59      C       4.7136489018     3.8248823905     1.8161260893
   60      C       6.1668154527    -2.2024953787    -0.6410019503
   61      C       1.4127505202     2.3817134241     0.0026542234
   62      C       7.4608279351    -0.0038052707    -1.9625758243
   63      C       6.9295702715     0.0413572473     2.0036226884
   64      C       4.8194213605     3.3741605359    -2.9726056840
   65      C       4.5753201173     2.1224895370    -3.6212282967
   66      C       7.6059322548     1.0606304389     1.3910823808
   67      C       2.1741265330    -0.1441555285    -2.4873806361
   68      C       4.4845821543    -1.7020804176    -2.4007442600
   69      C       2.3378486955     2.0912094003    -2.6362688104
   70      C       2.6299227230    -1.8330052302     0.6858031780
   71      C       6.0181312029     1.9708835716     2.6854679701
   72      C       5.7768877030    -1.7961880188    -1.9706615606
   73      C       7.9958383676     0.9310331128     0.0676928855
   74      C       1.1777356419     1.1815942572    -0.6914199746
   75      C       6.9540284598     3.3053805827     0.8837193606
   76      C       1.6556721352     2.0556811052     1.3525897833
   77      C       5.4967075183     4.4179393377    -0.3893563206
   78      C       5.9550467242     0.5847048882     2.8741025543
   79      C       7.1002148723     2.2646900611     1.8313826822
   80      C       3.0520467802    -1.2470721130     1.9235267589
   81      C       1.7953089131    -1.1291452548    -0.2227973522
   82      C       3.8311180540     3.9309023472    -2.1176085320
   83      C       4.8448371020     2.7578349715     2.6764431597
   84      C       7.6255376770     1.4052328914    -2.1024584845
   85      C       3.3042842720     1.5255595994    -3.5203941292
   86      C       6.1299842561     3.2981368800    -2.5046331416
   87      C       1.2718147165     0.0962473462     0.2113475539
   88      C       2.1187096373     3.4105671443    -0.6694698332
   89      O       0.8055993926     6.5601580507     2.3054931258
   90      C       2.1600705951     7.0411923813     2.0294283974
   91      H       2.5881180530     7.4450056337     2.9559683215
   92      H       2.1651395510     7.9270529527     1.3839678224
   93      H       2.7659071060     6.1970021618     1.6773900538
   94      O       1.3616489175     5.3143408144     4.1206841184
   95      C       0.5537982376     5.7487838601     3.3571223861
   96      C      -0.9884835352     5.4654951969     3.4387524450
   97      H      -1.4382822430     6.4629586318     3.5149221143
   98      H      -1.1556554499     4.8590092729     4.3369291397
   99      C      -1.4685521323     4.7517326079     2.1540921364
  100      H      -1.0979097446     5.3148814701     1.2896150809
  101      H      -0.8562623769     3.8488327610     2.0369421392
  102      C      -2.9586385524     4.3651765664     1.9889682819
  103      H      -3.2117641976     3.5996856249     2.7316606989
  104      H      -3.5824896403     5.2595260088     2.1113361498
  105      C      -3.2462278471     3.7225888963     0.6379766151
  106      C      -2.9269144221     4.5646120417    -0.6151538486
  107      C      -1.6860970435     4.4064944518    -1.3078630666
  108      H      -1.0208746425     3.6355342757    -0.9305375251
  109      C      -1.4152609599     5.1752290517    -2.4538826697
  110      H      -0.5333135171     4.9082429337    -3.0271724053
  111      C      -2.3823444539     6.0164695364    -2.9651692454
  112      H      -2.1783955948     6.4559617052    -3.9364933398
  113      C      -3.5739602589     6.1861484755    -2.3532036981
  114      H      -4.3239702230     6.8300844523    -2.8011261371
  115      C      -3.8433983325     5.5290178007    -1.1212445264
  116      H      -4.8362240101     5.7131247101    -0.7201612187
  117      C      -6.9196406750     1.2307649689    -2.4561301560
  118      C      -4.7700940756     0.4529887904    -3.2995159710
  119      C      -5.2112079750    -3.8370722781    -1.7225551101
  120      C      -7.2779478848     0.4765634700     2.5106013692
  121      C      -3.2530516335    -3.1496765039     1.0805822022
  122      C      -5.5871041458     1.4976646124    -2.7947744806
  123      C      -5.8680415354    -1.8798813574     3.2087481024
  124      C      -6.8383434514    -2.3763819757    -2.7427722351
  125      C      -2.0233079110     0.4316118986    -0.4290487974
  126      C      -5.9536892080     0.5414076727     3.0626730913
  127      C      -3.1850950986     2.2171225709     0.4809067895
  128      C      -2.1195042518     0.1486920640     0.9530787768
  129      C      -3.9285408121    -0.4276429381     3.0135417560
  130      C      -5.0807133296    -2.9040114479     2.6650084090
  131      C      -3.5047254975     1.6180376662    -1.9035469604
  132      C      -5.3548684364    -4.1530375356     0.5236605135
  133      C      -4.5170769540     2.8965000596     0.5471152842
  134      C      -5.4603503293     2.4322500322     1.5599762083
  135      C      -4.0135995573    -3.8893921886     0.1927074580
  136      C      -8.5532736281    -1.7934207887     0.2380750846
  137      C      -7.3257512045    -3.4831102424    -0.6118374107
  138      C      -7.7456712011    -2.6833743107    -1.6972933683
  139      C      -6.7507758559    -1.0826249795    -3.2723860103
  140      C      -6.7275870474     2.3072169041     0.9947976375
  141      C      -2.7053979963     1.5581766053    -0.7526072577
  142      C      -5.3736134453    -0.8375558593    -3.5398758625
  143      C      -5.2492953047    -0.6239806172     3.3749059574
  144      C      -3.5403440391     0.5013319283    -2.7562096220
  145      C      -2.2412496483    -1.1681798403     1.4317555425
  146      C      -8.4802444996     0.6121630394     0.5868818972
  147      C      -5.5766507590    -2.9939749683    -2.7749350310
  148      C      -2.8136759995     1.2150543357     1.5574016129
  149      C      -8.3898995684    -0.2487463398    -1.6585964114
  150      C      -3.1195207171    -1.4760048547     2.5005799856
  151      C      -2.0921960101    -0.7053576212    -1.3328633474
  152      C      -7.1871305251    -3.0791582384     1.7365520557
  153      C      -7.1210497717    -1.9433486789     2.6270709936
  154      C      -2.1945288138    -1.9785169698    -0.8390088443
  155      C      -7.6449817909     1.3260912710     1.4623587316
  156      C      -5.1024459529     1.4931786091     2.5263494901
  157      C      -8.5418590745    -0.7010294799     1.0846569983
  158      C      -5.2854414811     2.7513530966    -0.6986769587
  159      C      -3.3893939448    -1.9480654387    -2.7489564935
  160      C      -3.8228789775     0.9031838081     2.5031225672
  161      C      -2.3189085869    -2.2196423251     0.5922808661
  162      C      -8.4337888017     0.8786309045    -0.7909793966
  163      C      -3.8776459453    -3.6973777252    -1.2037230134
  164      C      -7.5069540890    -0.0156963948    -2.7039083282
  165      C      -6.1094041818    -4.0782836706    -0.6312670463
  166      C      -2.7885362020    -0.6529815475    -2.5340781842
  167      C      -2.9867886866    -2.7271956390    -1.6726985612
  168      C      -4.7872108673     2.1238416443    -1.8649126265
  169      C      -6.6189819164     2.4515127584    -0.4150862698
  170      C      -7.9243148342    -3.0006450571     0.5698858760
  171      C      -4.6941122458    -2.0608889709    -3.2547123691
  172      C      -3.7636511947    -2.6665260414     2.2708992687
  173      C      -7.8880102317    -0.7952828940     2.2766104305
  174      C      -5.8731842496    -3.6767107448     1.7397437780
  175      C      -7.4735876417     1.7475231441    -1.2590659361
  176      C      -8.4393828811    -1.5670447965    -1.1354094649
 ----------------------------------------------------------------
 Molecular Point Group                 C1    NOp =  1
 Largest Abelian Subgroup              C1    NOp =  1
 Nuclear Repulsion Energy = 35197.7036887216 hartrees
 There are      462 alpha and      462 beta electrons
 Requested basis set is 6-31G(d,p)
 There are 676 shells and 2360 basis functions

 Total QAlloc Memory Limit  20000 MB
 Mega-Array Size      4888 MB
 MEM_STATIC part      5000 MB
 A cutoff of  1.0D-08 yielded  38281 shell pairs
 There are    533821 function pairs
 
 -------------------------------------------------------
 OpenMP Integral Computing Module                       
 Release: version 1.0, May 2013, Q-Chem Inc. Pittsburgh 
 -------------------------------------------------------
 Integral Job Info:
 Integral job number is                      11
 Integral operator is                         1
 short-range coefficients                     0
 long-range coefficients              100000000
 Omega coefficients                           0
 if combine SR and LR in K                    0
 Integral screening is                        0
 Integral computing path is                   2
 max size of driver memory is            800000
 size of driver memory is                593474
 size of scratch memory is              2260544
 max col of scratch BK array               1296
 max len of scratch array in speh3          155
 max len of scratch index in speh4           18
 max int batch size is                      520
 min int batch size is                       52
 fixed nKL is                                52
 max L of basis functions is                  2
 order of int derivative is                   0
 number of shells is                        676
 number of basis is                        2360
 number of cartesian basis is              2360
 number of contracted shell pairs         38281
 number of primitive shell pairs         115280
 maxK2 (contraction) of shell pair           36
 max number of K2 of shell pair               1
 max number of CS2 of shell pair           7240
 max number of PS2 of shell pair          34692
 mem total for path MDJ                 1512152
 -------------------------------------------------------
 Smallest overlap matrix eigenvalue = 2.46E-04

 Scale SEOQF with 1.000000e-02/1.000000e-02/1.000000e-01

 Standard Electronic Orientation quadrupole field applied
 Nucleus-field energy     =    -0.0000002625 hartrees
 Guess from superposition of atomic densities
 Warning:  Energy on first SCF cycle will be non-variational
 A restricted hybrid HF-DFT SCF calculation will be
 performed using Pulay DIIS extrapolation
 Exchange:     0.2000 Hartree-Fock + 0.0800 Slater + 0.7200 B88
 Correlation:  0.1900 VWN1RPA + 0.8100 LYP
 Using SG-1 standard quadrature grid
 SCF converges when DIIS error is below 1.0E-05
 using 16 threads for integral computing 
 -------------------------------------------------------
 OpenMP BLAS3 based DFT computing Module                
 Release: version 1.0, May 2013, Q-Chem Inc. Pittsburgh 
 -------------------------------------------------------
 ---------------------------------------
  Cycle       Energy         DIIS Error
 ---------------------------------------
    1   -5858.3283486560      1.83E-02
    2   -5803.1255395122      1.29E-03
    3   -5802.3828279121      1.77E-03
    4   -5804.0076994549      6.19E-04
    5   -5804.2145803276      2.87E-04
    6   -5804.2670558364      1.20E-04
    7   -5804.2757662909      4.95E-05
    8   -5804.2768291512      3.23E-05
    9   -5804.2776079237      8.77E-06 Convergence criterion met
 ---------------------------------------
 SCF time:  CPU 8325.63 s  wall 855.91 s
 SCF   energy in the final basis set = -5804.2776079237
 Total energy in the final basis set = -5804.2776079237
 
 --------------------------------------------------------------
 
                    Orbital Energies (a.u.)
 --------------------------------------------------------------
 
 Alpha MOs
 -- Occupied --
-19.191 -19.187 -19.154 -19.132 -10.334 -10.312 -10.247 -10.246
-10.242 -10.241 -10.236 -10.236 -10.234 -10.233 -10.232 -10.232
-10.227 -10.226 -10.225 -10.225 -10.225 -10.224 -10.224 -10.224
-10.224 -10.223 -10.223 -10.223 -10.223 -10.223 -10.222 -10.222
-10.221 -10.220 -10.220 -10.220 -10.220 -10.220 -10.220 -10.220
-10.220 -10.220 -10.219 -10.219 -10.219 -10.219 -10.219 -10.219
-10.219 -10.218 -10.218 -10.218 -10.218 -10.218 -10.218 -10.218
-10.218 -10.217 -10.217 -10.217 -10.217 -10.216 -10.216 -10.216
-10.216 -10.216 -10.216 -10.216 -10.216 -10.215 -10.215 -10.215
-10.215 -10.215 -10.215 -10.215 -10.215 -10.215 -10.215 -10.215
-10.214 -10.214 -10.214 -10.214 -10.214 -10.213 -10.213 -10.213
-10.213 -10.213 -10.213 -10.213 -10.213 -10.212 -10.212 -10.212
-10.212 -10.212 -10.212 -10.212 -10.211 -10.211 -10.211 -10.211
-10.211 -10.211 -10.211 -10.210 -10.210 -10.210 -10.210 -10.210
-10.210 -10.209 -10.209 -10.209 -10.209 -10.208 -10.208 -10.208
-10.208 -10.208 -10.207 -10.207 -10.207 -10.207 -10.206 -10.206
-10.206 -10.206 -10.205 -10.205 -10.204 -10.204 -10.203 -10.202
-10.201 -10.201 -10.200 -10.198 -10.197 -10.197 -10.196 -10.195
-10.193 -10.192 -10.189 -10.188  -1.092  -1.074  -1.014  -1.012
 -0.983  -0.983  -0.966  -0.966  -0.964  -0.962  -0.962  -0.961
 -0.935  -0.935  -0.929  -0.926  -0.925  -0.924  -0.924  -0.924
 -0.919  -0.919  -0.900  -0.895  -0.892  -0.891  -0.886  -0.882
 -0.875  -0.872  -0.852  -0.850  -0.843  -0.841  -0.839  -0.838
 -0.837  -0.834  -0.824  -0.822  -0.809  -0.799  -0.798  -0.797
 -0.797  -0.796  -0.795  -0.792  -0.792  -0.790  -0.786  -0.782
 -0.773  -0.770  -0.769  -0.769  -0.767  -0.766  -0.765  -0.760
 -0.746  -0.745  -0.741  -0.739  -0.732  -0.730  -0.717  -0.715
 -0.714  -0.714  -0.713  -0.712  -0.711  -0.711  -0.710  -0.709
 -0.709  -0.708  -0.706  -0.704  -0.702  -0.701  -0.672  -0.670
 -0.659  -0.658  -0.657  -0.656  -0.649  -0.647  -0.632  -0.630
 -0.629  -0.627  -0.626  -0.623  -0.623  -0.621  -0.619  -0.617
 -0.616  -0.614  -0.613  -0.613  -0.612  -0.609  -0.609  -0.606
 -0.605  -0.604  -0.603  -0.602  -0.569  -0.564  -0.563  -0.563
 -0.561  -0.560  -0.558  -0.558  -0.557  -0.556  -0.554  -0.553
 -0.537  -0.534  -0.534  -0.530  -0.529  -0.528  -0.525  -0.525
 -0.524  -0.521  -0.521  -0.519  -0.517  -0.516  -0.514  -0.512
 -0.508  -0.505  -0.496  -0.494  -0.491  -0.490  -0.487  -0.485
 -0.484  -0.482  -0.480  -0.478  -0.477  -0.476  -0.475  -0.474
 -0.472  -0.471  -0.471  -0.469  -0.468  -0.466  -0.466  -0.465
 -0.465  -0.464  -0.463  -0.462  -0.461  -0.461  -0.458  -0.456
 -0.455  -0.454  -0.452  -0.452  -0.449  -0.446  -0.445  -0.443
 -0.443  -0.440  -0.440  -0.440  -0.438  -0.435  -0.435  -0.433
 -0.430  -0.430  -0.429  -0.428  -0.426  -0.425  -0.424  -0.424
 -0.423  -0.422  -0.421  -0.420  -0.419  -0.419  -0.418  -0.417
 -0.417  -0.416  -0.416  -0.415  -0.414  -0.413  -0.413  -0.412
 -0.412  -0.411  -0.410  -0.408  -0.403  -0.400  -0.399  -0.396
 -0.395  -0.394  -0.393  -0.391  -0.390  -0.389  -0.388  -0.384
 -0.382  -0.381  -0.375  -0.370  -0.370  -0.369  -0.366  -0.366
 -0.364  -0.364  -0.363  -0.362  -0.362  -0.360  -0.359  -0.357
 -0.357  -0.355  -0.355  -0.354  -0.352  -0.351  -0.351  -0.350
 -0.349  -0.349  -0.348  -0.348  -0.347  -0.346  -0.345  -0.343
 -0.342  -0.342  -0.341  -0.338  -0.337  -0.336  -0.334  -0.334
 -0.332  -0.331  -0.330  -0.329  -0.329  -0.327  -0.326  -0.323
 -0.307  -0.304  -0.298  -0.297  -0.292  -0.286  -0.276  -0.273
 -0.271  -0.269  -0.269  -0.268  -0.265  -0.264  -0.264  -0.264
 -0.263  -0.262  -0.260  -0.258  -0.257  -0.255  -0.252  -0.251
 -0.249  -0.248  -0.244  -0.241  -0.227  -0.223  -0.213  -0.212
 -0.210  -0.209  -0.208  -0.203  -0.198  -0.194
 -- Virtual --
 -0.126  -0.124  -0.121  -0.119  -0.112  -0.104  -0.078  -0.077
 -0.076  -0.073  -0.062  -0.059  -0.055  -0.050  -0.025  -0.023
 -0.021  -0.021  -0.020  -0.018  -0.017  -0.015  -0.015  -0.014
 -0.013  -0.011  -0.010  -0.008  -0.008  -0.005  -0.003   0.004
  0.013   0.022   0.030   0.036   0.040   0.042   0.044   0.045
  0.047   0.050   0.053   0.060   0.062   0.063   0.067   0.069
  0.071   0.072   0.078   0.086   0.086   0.087   0.088   0.089
  0.093   0.094   0.099   0.101   0.102   0.103   0.104   0.106
  0.109   0.110   0.114   0.115   0.118   0.120   0.120   0.121
  0.124   0.125   0.125   0.127   0.128   0.128   0.135   0.137
  0.138   0.144   0.145   0.149   0.150   0.151   0.152   0.155
  0.156   0.159   0.160   0.163   0.163   0.166   0.168   0.170
  0.171   0.173   0.175   0.176   0.179   0.180   0.180   0.181
  0.183   0.186   0.186   0.189   0.189   0.190   0.191   0.192
  0.193   0.196   0.198   0.199   0.200   0.201   0.203   0.204
  0.205   0.206   0.210   0.212   0.215   0.216   0.217   0.218
  0.219   0.220   0.221   0.224   0.225   0.226   0.227   0.228
  0.230   0.231   0.234   0.234   0.235   0.238   0.240   0.240
  0.241   0.242   0.243   0.248   0.248   0.250   0.257   0.259
  0.263   0.266   0.270   0.271   0.272   0.273   0.276   0.278
  0.280   0.281   0.283   0.288   0.292   0.295   0.300   0.303
  0.305   0.308   0.309   0.310   0.311   0.314   0.314   0.316
  0.319   0.320   0.323   0.326   0.327   0.328   0.331   0.333
  0.333   0.338   0.339   0.341   0.343   0.345   0.348   0.351
  0.353   0.353   0.355   0.362   0.369   0.371   0.380   0.389
  0.392   0.396   0.398   0.398   0.402   0.404   0.406   0.406
  0.408   0.410   0.414   0.416   0.417   0.421   0.423   0.424
  0.429   0.430   0.432   0.437   0.438   0.443   0.445   0.448
  0.449   0.451   0.452   0.454   0.458   0.458   0.460   0.465
  0.466   0.468   0.469   0.470   0.471   0.473   0.475   0.478
  0.478   0.479   0.480   0.481   0.482   0.483   0.485   0.486
  0.487   0.488   0.489   0.490   0.491   0.491   0.494   0.495
  0.496   0.497   0.498   0.500   0.500   0.501   0.501   0.503
  0.504   0.504   0.506   0.507   0.507   0.508   0.509   0.510
  0.511   0.513   0.514   0.514   0.516   0.516   0.517   0.518
  0.519   0.519   0.520   0.521   0.522   0.524   0.525   0.525
  0.526   0.527   0.528   0.529   0.529   0.530   0.532   0.532
  0.533   0.533   0.534   0.534   0.535   0.536   0.537   0.538
  0.539   0.540   0.541   0.542   0.543   0.544   0.545   0.546
  0.546   0.547   0.548   0.549   0.550   0.551   0.552   0.552
  0.553   0.554   0.554   0.555   0.556   0.556   0.558   0.559
  0.560   0.560   0.560   0.561   0.562   0.563   0.564   0.565
  0.566   0.566   0.567   0.567   0.568   0.570   0.571   0.571
  0.572   0.573   0.574   0.575   0.576   0.576   0.577   0.578
  0.578   0.579   0.580   0.581   0.581   0.582   0.583   0.584
  0.585   0.587   0.587   0.588   0.588   0.589   0.590   0.593
  0.593   0.593   0.595   0.596   0.598   0.598   0.599   0.600
  0.600   0.602   0.603   0.603   0.605   0.607   0.608   0.610
  0.611   0.613   0.613   0.614   0.616   0.616   0.618   0.619
  0.620   0.621   0.622   0.624   0.625   0.626   0.627   0.628
  0.628   0.629   0.630   0.631   0.632   0.633   0.634   0.635
  0.635   0.636   0.638   0.639   0.639   0.640   0.641   0.641
  0.644   0.645   0.646   0.646   0.647   0.648   0.650   0.651
  0.651   0.652   0.653   0.653   0.654   0.655   0.657   0.657
  0.658   0.659   0.659   0.661   0.661   0.662   0.663   0.664
  0.665   0.666   0.667   0.668   0.669   0.670   0.670   0.671
  0.671   0.672   0.673   0.673   0.675   0.676   0.677   0.679
  0.681   0.681   0.683   0.683   0.683   0.684   0.685   0.687
  0.688   0.689   0.691   0.692   0.693   0.694   0.695   0.696
  0.697   0.698   0.699   0.701   0.703   0.704   0.704   0.705
  0.707   0.708   0.709   0.710   0.711   0.712   0.715   0.715
  0.716   0.718   0.720   0.721   0.722   0.722   0.723   0.724
  0.726   0.727   0.728   0.730   0.730   0.731   0.734   0.735
  0.736   0.737   0.738   0.739   0.741   0.741   0.743   0.745
  0.746   0.747   0.749   0.750   0.752   0.753   0.755   0.756
  0.757   0.758   0.759   0.759   0.762   0.764   0.764   0.765
  0.767   0.768   0.770   0.771   0.774   0.774   0.775   0.776
  0.777   0.777   0.778   0.781   0.782   0.783   0.786   0.787
  0.788   0.789   0.790   0.791   0.792   0.793   0.794   0.796
  0.796   0.798   0.799   0.801   0.802   0.803   0.803   0.804
  0.806   0.807   0.808   0.808   0.809   0.810   0.811   0.812
  0.812   0.813   0.814   0.815   0.815   0.817   0.817   0.818
  0.819   0.820   0.820   0.822   0.822   0.823   0.824   0.824
  0.826   0.826   0.827   0.830   0.830   0.831   0.831   0.833
  0.833   0.835   0.837   0.838   0.839   0.844   0.846   0.847
  0.852   0.853   0.855   0.856   0.858   0.861   0.862   0.865
  0.872   0.872   0.876   0.881   0.882   0.888   0.890   0.892
  0.894   0.897   0.897   0.898   0.901   0.903   0.907   0.909
  0.912   0.915   0.917   0.919   0.921   0.923   0.924   0.928
  0.930   0.930   0.931   0.934   0.935   0.936   0.937   0.938
  0.939   0.941   0.941   0.943   0.945   0.946   0.949   0.953
  0.957   0.958   0.959   0.964   0.966   0.969   0.973   0.976
  0.979   0.981   0.984   0.985   0.988   0.991   0.994   0.995
  0.999   0.999   1.002   1.003   1.005   1.005   1.007   1.010
  1.011   1.012   1.014   1.015   1.018   1.021   1.023   1.025
  1.026   1.027   1.028   1.031   1.032   1.033   1.034   1.036
  1.037   1.038   1.040   1.041   1.042   1.044   1.044   1.046
  1.050   1.051   1.053   1.055   1.057   1.058   1.060   1.063
  1.064   1.065   1.066   1.070   1.071   1.072   1.073   1.074
  1.077   1.078   1.080   1.082   1.083   1.084   1.086   1.087
  1.088   1.089   1.090   1.092   1.093   1.094   1.099   1.100
  1.100   1.103   1.103   1.106   1.107   1.110   1.112   1.114
  1.117   1.118   1.121   1.123   1.124   1.127   1.130   1.131
  1.137   1.138   1.140   1.142   1.144   1.146   1.147   1.150
  1.151   1.152   1.155   1.157   1.158   1.159   1.161   1.161
  1.165   1.166   1.167   1.167   1.170   1.170   1.172   1.173
  1.174   1.175   1.177   1.178   1.179   1.183   1.184   1.188
  1.188   1.189   1.190   1.193   1.194   1.195   1.196   1.198
  1.200   1.203   1.205   1.207   1.209   1.213   1.213   1.215
  1.223   1.224   1.226   1.227   1.233   1.236   1.239   1.241
  1.245   1.248   1.252   1.255   1.257   1.259   1.260   1.262
  1.264   1.265   1.267   1.270   1.271   1.274   1.274   1.277
  1.281   1.283   1.285   1.286   1.290   1.291   1.292   1.298
  1.298   1.300   1.302   1.305   1.306   1.306   1.309   1.311
  1.313   1.315   1.317   1.322   1.326   1.327   1.329   1.332
  1.333   1.336   1.338   1.343   1.344   1.347   1.348   1.349
  1.350   1.351   1.355   1.356   1.358   1.361   1.362   1.362
  1.365   1.368   1.372   1.375   1.377   1.378   1.379   1.381
  1.385   1.387   1.389   1.392   1.394   1.399   1.401   1.404
  1.408   1.411   1.412   1.415   1.416   1.418   1.421   1.423
  1.424   1.427   1.428   1.431   1.438   1.440   1.441   1.444
  1.450   1.451   1.454   1.456   1.458   1.459   1.461   1.463
  1.465   1.467   1.469   1.469   1.471   1.472   1.474   1.475
  1.477   1.480   1.483   1.486   1.487   1.490   1.491   1.493
  1.495   1.499   1.501   1.507   1.508   1.511   1.515   1.517
  1.518   1.519   1.521   1.527   1.532   1.535   1.537   1.539
  1.541   1.546   1.548   1.550   1.553   1.554   1.558   1.559
  1.560   1.562   1.564   1.565   1.566   1.567   1.572   1.574
  1.575   1.577   1.578   1.580   1.581   1.583   1.585   1.590
  1.590   1.594   1.596   1.601   1.605   1.612   1.614   1.616
  1.619   1.623   1.627   1.633   1.635   1.637   1.639   1.640
  1.642   1.647   1.650   1.654   1.661   1.663   1.666   1.670
  1.674   1.677   1.683   1.686   1.688   1.692   1.693   1.697
  1.698   1.700   1.703   1.707   1.708   1.709   1.711   1.712
  1.715   1.716   1.717   1.719   1.723   1.726   1.728   1.730
  1.730   1.734   1.736   1.736   1.740   1.741   1.741   1.742
  1.745   1.746   1.747   1.749   1.752   1.754   1.756   1.757
  1.758   1.759   1.761   1.763   1.764   1.764   1.765   1.766
  1.767   1.769   1.770   1.772   1.773   1.775   1.776   1.777
  1.780   1.781   1.782   1.783   1.784   1.785   1.786   1.787
  1.787   1.789   1.791   1.792   1.792   1.794   1.795   1.796
  1.796   1.798   1.799   1.800   1.802   1.804   1.805   1.807
  1.809   1.811   1.812   1.814   1.815   1.818   1.819   1.821
  1.822   1.826   1.828   1.830   1.831   1.835   1.835   1.837
  1.839   1.843   1.844   1.845   1.848   1.849   1.851   1.853
  1.855   1.857   1.858   1.861   1.862   1.863   1.866   1.867
  1.870   1.870   1.872   1.874   1.876   1.878   1.880   1.881
  1.883   1.884   1.887   1.890   1.896   1.898   1.901   1.903
  1.907   1.908   1.911   1.914   1.915   1.917   1.921   1.923
  1.924   1.926   1.928   1.928   1.932   1.933   1.933   1.936
  1.938   1.939   1.940   1.942   1.944   1.944   1.947   1.949
  1.951   1.953   1.956   1.959   1.961   1.964   1.965   1.968
  1.970   1.971   1.972   1.974   1.977   1.978   1.978   1.980
  1.984   1.985   1.990   1.991   1.991   1.993   1.994   1.995
  1.997   1.999   2.001   2.001   2.002   2.003   2.006   2.007
  2.008   2.008   2.010   2.012   2.013   2.015   2.015   2.016
  2.017   2.021   2.022   2.023   2.024   2.025   2.027   2.027
  2.029   2.030   2.030   2.032   2.033   2.035   2.036   2.037
  2.038   2.039   2.040   2.041   2.042   2.043   2.044   2.044
  2.046   2.048   2.049   2.051   2.052   2.054   2.055   2.057
  2.057   2.059   2.060   2.061   2.062   2.063   2.064   2.064
  2.067   2.068   2.069   2.070   2.071   2.074   2.076   2.077
  2.078   2.080   2.082   2.083   2.084   2.086   2.087   2.091
  2.091   2.094   2.096   2.098   2.101   2.102   2.104   2.105
  2.106   2.109   2.109   2.115   2.115   2.118   2.119   2.122
  2.126   2.126   2.129   2.131   2.133   2.135   2.136   2.141
  2.144   2.148   2.151   2.154   2.156   2.156   2.161   2.167
  2.169   2.175   2.181   2.187   2.194   2.196   2.198   2.205
  2.208   2.208   2.210   2.214   2.215   2.217   2.219   2.222
  2.227   2.231   2.234   2.238   2.239   2.241   2.244   2.248
  2.249   2.250   2.253   2.254   2.259   2.260   2.262   2.265
  2.267   2.269   2.271   2.273   2.276   2.278   2.281   2.283
  2.284   2.285   2.289   2.290   2.291   2.293   2.295   2.299
  2.301   2.303   2.308   2.312   2.314   2.318   2.318   2.319
  2.323   2.324   2.324   2.327   2.328   2.330   2.331   2.333
  2.335   2.338   2.339   2.344   2.345   2.348   2.352   2.355
  2.356   2.358   2.360   2.361   2.364   2.365   2.368   2.368
  2.369   2.371   2.373   2.375   2.376   2.377   2.378   2.379
  2.381   2.382   2.384   2.386   2.386   2.389   2.390   2.391
  2.393   2.395   2.397   2.401   2.403   2.405   2.406   2.407
  2.408   2.409   2.412   2.414   2.416   2.417   2.419   2.423
  2.424   2.427   2.429   2.430   2.431   2.440   2.442   2.445
  2.450   2.451   2.452   2.453   2.456   2.459   2.459   2.462
  2.464   2.465   2.466   2.472   2.473   2.475   2.478   2.480
  2.481   2.482   2.483   2.485   2.486   2.487   2.491   2.494
  2.497   2.498   2.499   2.500   2.502   2.504   2.506   2.508
  2.510   2.511   2.513   2.514   2.515   2.518   2.521   2.522
  2.523   2.526   2.527   2.531   2.532   2.534   2.535   2.538
  2.539   2.542   2.545   2.548   2.552   2.559   2.560   2.565
  2.569   2.570   2.573   2.577   2.579   2.582   2.587   2.588
  2.590   2.592   2.597   2.598   2.599   2.601   2.603   2.605
  2.606   2.608   2.610   2.614   2.616   2.616   2.618   2.622
  2.622   2.624   2.625   2.626   2.629   2.630   2.631   2.631
  2.633   2.634   2.635   2.637   2.639   2.640   2.642   2.644
  2.647   2.648   2.649   2.651   2.655   2.656   2.658   2.660
  2.660   2.662   2.663   2.664   2.666   2.668   2.672   2.673
  2.675   2.677   2.679   2.680   2.681   2.682   2.683   2.686
  2.688   2.690   2.693   2.695   2.700   2.701   2.703   2.705
  2.709   2.712   2.715   2.716   2.721   2.723   2.725   2.727
  2.730   2.732   2.736   2.738   2.739   2.740   2.742   2.744
  2.747   2.749   2.753   2.753   2.755   2.756   2.758   2.760
  2.762   2.767   2.768   2.771   2.773   2.775   2.777   2.778
  2.781   2.784   2.787   2.787   2.788   2.791   2.794   2.796
  2.797   2.805   2.806   2.813   2.814   2.817   2.819   2.820
  2.824   2.825   2.828   2.831   2.833   2.834   2.838   2.840
  2.841   2.846   2.849   2.853   2.854   2.857   2.858   2.860
  2.862   2.864   2.865   2.868   2.868   2.873   2.876   2.877
  2.878   2.879   2.881   2.883   2.884   2.886   2.888   2.890
  2.891   2.892   2.892   2.893   2.899   2.901   2.902   2.902
  2.904   2.907   2.907   2.909   2.910   2.912   2.914   2.916
  2.917   2.919   2.923   2.925   2.925   2.928   2.932   2.932
  2.934   2.936   2.936   2.939   2.946   2.950   2.951   2.952
  2.954   2.955   2.959   2.961   2.967   2.970   2.972   2.976
  2.977   2.985   2.988   2.991   2.992   2.998   3.001   3.003
  3.005   3.007   3.009   3.012   3.015   3.016   3.017   3.020
  3.021   3.026   3.030   3.032   3.035   3.035   3.036   3.040
  3.043   3.045   3.046   3.048   3.051   3.055   3.058   3.063
  3.066   3.067   3.073   3.074   3.084   3.086   3.095   3.101
  3.103   3.112   3.124   3.136   3.140   3.142   3.144   3.149
  3.151   3.156   3.157   3.168   3.171   3.174   3.177   3.182
  3.188   3.192   3.206   3.208   3.218   3.233   3.234   3.241
  3.244   3.250   3.260   3.271   3.273   3.280   3.286   3.291
  3.295   3.300   3.307   3.312   3.315   3.324   3.325   3.327
  3.333   3.340   3.341   3.347   3.353   3.359   3.387   3.389
  3.424   3.427   3.427   3.430   3.433   3.436   3.439   3.443
  3.446   3.453   3.458   3.471   3.474   3.480   3.482   3.489
  3.491   3.496   3.507   3.515   3.523   3.531   3.538   3.546
  3.548   3.554   3.559   3.562   3.567   3.587   3.599   3.602
  3.605   3.624   3.673   3.694   3.845   3.880   3.932   4.033
  4.070   4.075   4.081   4.086   4.091   4.094   4.099   4.099
  4.101   4.105   4.105   4.107   4.110   4.110   4.114   4.118
  4.126   4.129   4.131   4.133   4.141   4.145   4.145   4.150
  4.156   4.157   4.159   4.162   4.169   4.171   4.176   4.181
  4.189   4.192   4.202   4.204   4.213   4.217   4.227   4.237
  4.242   4.243   4.252   4.253   4.256   4.258   4.261   4.264
  4.266   4.271   4.273   4.280   4.287   4.289   4.295   4.302
  4.307   4.308   4.320   4.352   4.380   4.386   4.389   4.394
  4.396   4.399   4.400   4.405   4.406   4.410   4.414   4.419
  4.421   4.424   4.425   4.427   4.437   4.439   4.454   4.476
  4.496   4.505   4.513   4.520   4.527   4.538   4.545   4.551
  4.554   4.561   4.614   4.617   4.619   4.636   4.637   4.640
  4.645   4.651   4.674   4.681   4.686   4.694   4.699   4.700
  4.701   4.703   4.708   4.711   4.747   4.767   4.793   4.814
  4.835   4.836   4.855   4.864   4.867   4.882   4.889   4.890
  4.895   4.910   4.937   4.958   4.967   4.972   4.976   4.984
  4.987   4.989   4.997   5.019   5.154   5.168   5.175   5.183
  5.187   5.204   5.221   5.225   5.290   5.322   5.331   5.339
  5.364   5.379
 --------------------------------------------------------------
 
          Ground-State Mulliken Net Atomic Charges

     Atom                 Charge (a.u.)
  ----------------------------------------
      1 O                    -0.474774
      2 C                    -0.081348
      3 H                     0.124193
      4 H                     0.121194
      5 H                     0.121592
      6 O                    -0.444223
      7 C                     0.586911
      8 C                    -0.240031
      9 H                     0.123377
     10 H                     0.119519
     11 C                    -0.187053
     12 H                     0.127190
     13 H                     0.108337
     14 C                    -0.181441
     15 H                     0.102787
     16 H                     0.122951
     17 C                     0.004396
     18 C                     0.097522
     19 C                    -0.105144
     20 H                     0.087322
     21 C                    -0.083080
     22 H                     0.090084
     23 C                    -0.077509
     24 H                     0.092195
     25 C                    -0.103147
     26 H                     0.089241
     27 C                    -0.105634
     28 H                     0.103693
     29 C                     0.014420
     30 C                     0.022009
     31 C                     0.052282
     32 C                    -0.011307
     33 C                    -0.009672
     34 C                    -0.033361
     35 C                     0.001931
     36 C                    -0.020295
     37 C                     0.003586
     38 C                     0.006437
     39 C                    -0.083801
     40 C                    -0.010583
     41 C                    -0.016557
     42 C                    -0.014142
     43 C                     0.013495
     44 C                     0.000280
     45 C                    -0.100664
     46 C                     0.040890
     47 C                    -0.022893
     48 C                    -0.014728
     49 C                    -0.005042
     50 C                    -0.003157
     51 C                     0.011972
     52 C                    -0.003862
     53 C                     0.034326
     54 C                     0.001476
     55 C                     0.021039
     56 C                     0.000512
     57 C                    -0.016910
     58 C                     0.022882
     59 C                    -0.000177
     60 C                     0.002160
     61 C                    -0.011396
     62 C                    -0.003099
     63 C                     0.011144
     64 C                    -0.013739
     65 C                     0.002050
     66 C                     0.022020
     67 C                    -0.016340
     68 C                     0.009013
     69 C                     0.009508
     70 C                     0.028774
     71 C                     0.024144
     72 C                     0.004917
     73 C                     0.032420
     74 C                     0.005738
     75 C                     0.001195
     76 C                    -0.024046
     77 C                    -0.014997
     78 C                    -0.041742
     79 C                    -0.040805
     80 C                     0.011301
     81 C                    -0.004110
     82 C                     0.008890
     83 C                     0.000415
     84 C                     0.003046
     85 C                    -0.011959
     86 C                     0.010923
     87 C                     0.002704
     88 C                     0.008019
     89 O                    -0.461749
     90 C                    -0.090754
     91 H                     0.125719
     92 H                     0.125524
     93 H                     0.130673
     94 O                    -0.458538
     95 C                     0.575811
     96 C                    -0.235200
     97 H                     0.121349
     98 H                     0.123590
     99 C                    -0.210473
    100 H                     0.131934
    101 H                     0.103083
    102 C                    -0.162964
    103 H                     0.104515
    104 H                     0.106728
    105 C                     0.017871
    106 C                     0.069611
    107 C                    -0.100417
    108 H                     0.094163
    109 C                    -0.098631
    110 H                     0.092668
    111 C                    -0.070727
    112 H                     0.086226
    113 C                    -0.082387
    114 H                     0.089885
    115 C                    -0.118526
    116 H                     0.089740
    117 C                    -0.010050
    118 C                    -0.002763
    119 C                    -0.024924
    120 C                    -0.028688
    121 C                     0.015080
    122 C                    -0.026416
    123 C                     0.003791
    124 C                    -0.002263
    125 C                     0.006176
    126 C                    -0.015593
    127 C                    -0.088481
    128 C                     0.019568
    129 C                    -0.001178
    130 C                    -0.014395
    131 C                     0.006661
    132 C                     0.004637
    133 C                    -0.094226
    134 C                     0.044661
    135 C                    -0.019286
    136 C                     0.009266
    137 C                     0.016069
    138 C                    -0.026807
    139 C                    -0.004637
    140 C                    -0.021929
    141 C                     0.028190
    142 C                    -0.012174
    143 C                     0.008714
    144 C                     0.018461
    145 C                     0.011743
    146 C                     0.006891
    147 C                     0.009191
    148 C                     0.000149
    149 C                    -0.001708
    150 C                    -0.044253
    151 C                    -0.001135
    152 C                    -0.016771
    153 C                     0.014970
    154 C                     0.003425
    155 C                     0.007482
    156 C                     0.020556
    157 C                     0.021847
    158 C                     0.056414
    159 C                    -0.026987
    160 C                    -0.005718
    161 C                    -0.021153
    162 C                    -0.037441
    163 C                     0.000041
    164 C                     0.002654
    165 C                     0.021381
    166 C                    -0.025385
    167 C                     0.020562
    168 C                     0.027553
    169 C                    -0.016847
    170 C                    -0.004465
    171 C                     0.012439
    172 C                     0.036475
    173 C                    -0.017802
    174 C                    -0.013282
    175 C                     0.032829
    176 C                     0.004507
  ----------------------------------------
  Sum of atomic charges =     0.000000

 -----------------------------------------------------------------
                    Cartesian Multipole Moments
 -----------------------------------------------------------------
    Charge (ESU x 10^10)
                 0.0000
    Dipole Moment (Debye)
         X       2.2956      Y      -0.5700      Z       0.1876
       Tot       2.3727
    Quadrupole Moments (Debye-Ang)
        XX    -804.0244     XY     -24.8413     YY    -760.4624
        XZ      -4.5811     YZ     -25.5040     ZZ    -817.8023
    Octopole Moments (Debye-Ang^2)
       XXX     236.8228    XXY     -69.3728    XYY     148.8479
       YYY    -169.4649    XXZ      22.5645    XYZ     -39.2252
       YYZ     141.7083    XZZ      24.4044    YZZ     -50.8903
       ZZZ       6.8126
    Hexadecapole Moments (Debye-Ang^3)
      XXXX -122947.2417   XXXY   -1601.4368   XXYY  -28601.9753
      XYYY   -1956.3144   YYYY  -51297.5816   XXXZ      23.0881
      XXYZ      89.1490   XYYZ     301.9236   YYYZ   -1183.1562
      XXZZ  -24020.6641   XYZZ    -616.1568   YYZZ  -12791.0013
      XZZZ      25.9573   YZZZ    -362.0554   ZZZZ  -21633.7831
 -----------------------------------------------------------------
Archival summary:
1\1\mn251\SP\ProcedureUnspecified\6-31G**\428\afmv_a\SatOct1303:13:392018SatOct1303:13:392018\0\\#,ProcedureUnspecified,6-31G**,\\0,1\C\C,1,1.40147\C,2,1.41369,1,119.776\C,3,1.3934,2,111.224,1,-141.592,0\C,4,1.37902,3,118.468,2,142.396,0\C,5,1.36524,4,119.875,3,-138.505,0\C,1,1.41486,2,119.862,3,-4.4419,0\C,7,1.3884,1,121.267,2,2.95096,0\C,8,1.38168,7,123.525,1,139.163,0\C,9,1.36192,8,120.389,7,0.0563023,0\C,7,1.40615,1,109.187,2,145.264,0\C,11,1.40983,7,107.701,1,0.0608631,0\C,12,1.41247,11,117.4,7,-142.504,0\C,13,1.41066,12,120.875,11,3.02882,0\C,14,1.40691,13,111.2,12,142.224,0\C,15,1.37693,14,106.086,13,-5.52236,0\C,15,1.3904,14,119.372,13,-140.153,0\C,17,1.3664,15,122.272,14,-11.3491,0\C,18,1.40786,17,108.004,15,147.084,0\C,16,1.41085,15,109.213,14,3.70842,0\C,17,1.41127,15,124.692,14,137.542,0\C,16,1.4128,15,120.982,14,-140.868,0\C,22,1.40038,16,120.985,15,142.352,0\C,22,1.4095,16,121.17,15,-1.06247,0\C,24,1.37818,22,107.049,16,141.208,0\C,25,1.36806,24,109.054,22,3.61487,0\C,25,1.38571,24,119.345,22,-139.271,0\C,26,1.38788,25,123.91,24,-141.129,0\C,27,1.39307,25,118.485,24,142.263,0\C,28,1.3934,26,127.105,25,142.765,0\C,27,1.39409,25,125.549,24,-4.87428,0\C,31,1.40084,27,107.365,25,143.145,0\C,29,1.41115,27,122.067,25,-1.10175,0\C,31,1.41239,27,115.285,25,5.74088,0\C,18,1.41424,17,120.406,15,8.6371,0\C,35,1.3884,18,121.819,17,132.714,0\C,35,1.41525,18,117.974,17,-0.250053,0\C,37,1.38769,35,111.964,18,142.194,0\C,8,1.4199,7,121.024,1,-3.80124,0\C,39,1.39418,8,108.258,7,145.399,0\C,40,1.38722,39,109.077,8,4.13371,0\C,40,1.4028,39,119.259,8,-136.34,0\C,42,1.37755,40,122.605,39,140.65,0\C,43,1.3826,42,106.209,40,-145.779,0\C,44,1.37275,43,117.22,42,141.657,0\C,43,1.40328,42,120.275,40,-0.833695,0\C,46,1.39984,43,119.909,42,-135.245,0\C,41,1.40784,40,119.176,39,-141.785,0\C,2,1.42041,1,117.039,3,-136.641,0\C,36,1.42047,35,121.011,18,4.20115,0\C,50,1.39368,36,118.264,35,-4.50516,0\C,1,1.42239,2,120.833,3,134.085,0\C,52,1.40612,1,122.987,2,-1.43928,0\C,53,1.41824,52,116.373,1,0.593912,0\C,54,1.40521,53,103.588,52,-138.738,0\C,55,1.37518,54,113.327,53,-5.12837,0\C,56,1.3652,55,104.681,54,8.39622,0\C,33,1.43757,29,122.071,27,-143.007,0\C,30,1.49924,28,111.521,26,-156.429,0\C,59,1.45632,30,112.793,28,129.631,0\C,59,1.53682,30,127.905,28,-158.747,0\C,61,1.43863,59,124.244,30,5.16952,0\C,62,1.39899,61,117.451,59,47.1791,0\H,63,1.0864,62,120.599,61,-13.9541,0\C,63,1.41664,62,123.719,61,157.687,0\H,65,1.08528,63,116.438,62,-177.9,0\C,65,1.36555,63,120.087,62,6.5692,0\H,67,1.08608,65,122.098,63,178.708,0\C,62,1.4409,61,124.027,59,-145.125,0\H,69,1.08641,62,122.529,61,20.5757,0\C,69,1.42029,62,116.852,61,-157.842,0\H,71,1.0861,69,115.279,62,-176.71,0\C,61,1.5048,59,118.103,30,159.208,0\H,73,1.09749,61,109,59,154.558,0\H,73,1.09771,61,107.434,59,44.911,0\C,73,1.54882,61,117.551,59,-82.7806,0\H,76,1.09624,73,113.229,61,-33.5766,0\H,76,1.09669,73,112.229,61,77.5995,0\C,76,1.47772,73,113.14,61,-152.783,0\H,79,1.09728,76,104.407,73,-176.584,0\H,79,1.09731,76,115.35,73,-71.0297,0\C,79,1.60402,76,118.549,73,59.512,0\O,82,1.22465,79,125.49,76,-105.664,0\O,82,1.42867,79,108.219,76,68.8949,0\C,84,1.44808,82,123.489,79,165.3,0\H,85,1.09639,84,116.581,82,73.1064,0\H,85,1.09715,84,110.405,82,-168.672,0\H,85,1.09752,84,114.756,82,-47.4918,0\H,14,2.48879,13,119.284,12,-101.678,0\C,89,1.0971,14,156.255,13,6.65652,0\H,90,1.09608,89,115.492,14,148.292,0\H,90,1.09762,89,109.792,14,-97.8389,0\O,90,1.46362,89,108.582,14,21.0216,0\C,93,1.35191,90,121.087,89,-70.2807,0\O,94,1.19348,93,126.162,90,2.44598,0\C,94,1.57021,93,109.37,90,-177.015,0\H,96,1.09658,94,106.984,93,176.522,0\H,96,1.09684,94,104.024,93,57.2036,0\C,96,1.54605,94,110.187,93,-61.2488,0\H,99,1.09628,96,108.246,94,49.9307,0\H,99,1.0972,96,107.179,94,-55.5595,0\C,99,1.54824,96,120.181,94,179.861,0\H,102,1.09619,99,108.925,96,66.0506,0\H,102,1.09728,99,109.378,96,-55.7274,0\C,102,1.52342,99,112.432,96,-177.719,0\C,105,1.51487,102,120.233,99,-92.0242,0\C,106,1.47847,105,122.856,102,144.854,0\C,107,1.35613,106,109.535,105,-143.905,0\C,107,1.40256,106,118.732,105,70.8922,0\C,109,1.37917,107,121.508,106,8.2993,0\C,110,1.37716,109,110.759,107,148.597,0\C,111,1.40056,110,118.425,109,-142.556,0\C,112,1.4,111,121.736,110,133.791,0\C,113,1.38801,112,106.443,111,-145.276,0\C,109,1.40547,107,118.579,106,143.89,0\C,115,1.34529,109,107.261,107,-147.706,0\C,115,1.39535,109,123.166,107,1.88424,0\C,117,1.38944,115,116.03,109,-6.52558,0\C,118,1.36942,117,108.021,115,-139.576,0\C,119,1.37231,118,109.346,117,2.39905,0\C,120,1.38833,119,109.402,118,-1.37285,0\C,120,1.39815,119,122.864,118,143.121,0\C,121,1.40385,120,120.245,119,140.854,0\C,123,1.37103,121,121.795,120,4.55511,0\C,124,1.39709,123,120.393,121,-2.32813,0\C,124,1.40511,123,106.671,121,-141.794,0\C,126,1.4007,124,109.949,123,-3.23595,0\C,108,1.41406,107,111.419,106,-7.16926,0\C,128,1.40645,108,121.727,107,-141.938,0\C,129,1.34771,128,121.566,108,2.3529,0\C,130,1.40571,129,109.761,128,140.443,0\C,131,1.38239,130,108.26,129,0.616194,0\C,132,1.37295,131,105.892,130,1.19521,0\C,131,1.38345,130,119.745,129,-146.433,0\C,132,1.39513,131,122.17,130,-146.624,0\C,135,1.40156,132,121.033,131,136.078,0\C,136,1.3829,135,108.196,132,-135.78,0\C,134,1.40643,131,118.261,130,142.24,0\C,138,1.38158,134,108.299,131,-142.017,0\C,139,1.35429,138,120.152,134,139.023,0\C,138,1.40513,134,119.465,131,0.747234,0\C,128,1.40862,108,107.541,107,4.86338,0\C,140,1.40979,139,122.939,138,4.51568,0\C,143,1.38229,140,117.491,139,-3.81136,0\C,143,1.4011,140,106.676,139,-140.732,0\C,145,1.38208,143,122.158,140,140.715,0\C,146,1.36277,145,119.016,143,-0.587513,0\C,145,1.39667,143,109.63,140,-4.18773,0\C,146,1.40572,145,121.455,143,-144.969,0\C,149,1.40416,146,121.749,145,-0.306705,0\C,150,1.37698,149,118.45,146,130.922,0\C,151,1.39221,150,122.756,149,5.22938,0\C,152,1.39594,151,124.88,150,-144.454,0\C,149,1.40493,146,106.267,145,141.637,0\C,154,1.39829,149,108.329,146,3.46804,0\C,136,1.40987,135,116.75,132,2.04092,0\C,156,1.3833,136,120.975,135,-0.023975,0\C,156,1.39706,136,119.7,135,-138.736,0\C,158,1.38496,156,110.482,136,144.554,0\C,159,1.39421,158,124.995,156,-147.263,0\C,160,1.39318,159,117.016,158,7.1348,0\C,159,1.40923,158,106.066,156,0.0278085,0\C,140,1.41213,139,120.327,138,-141.237,0\C,127,1.42414,126,106.883,124,4.99982,0\C,160,1.45986,159,121.953,158,146.684,0\C,105,1.54315,102,116.803,99,59.3296,0\C,166,1.42343,105,121.681,102,83.5173,0\H,167,1.08649,166,124.883,105,3.52906,0\C,167,1.42202,166,119.942,105,173.559,0\H,169,1.08527,167,120.054,166,-172.574,0\C,169,1.35027,167,120.118,166,7.77615,0\H,171,1.08546,169,121.366,167,-175.991,0\C,171,1.37998,169,121.812,167,-2.39681,0\H,173,1.08525,171,121.585,169,-169.342,0\C,173,1.4063,171,120.013,169,-3.73124,0\H,175,1.08594,173,123.591,171,-171.874,0\\\@

 Total job time:  871.33s(wall), 8352.67s(cpu) 
 Sat Oct 13 03:13:39 2018

        *************************************************************
        *                                                           *
        *  Thank you very much for using Q-Chem.  Have a nice day.  *
        *                                                           *
        *************************************************************


