
Running Job 1 of 1 ./8/24.qcin
qchem ./8/24.qcin_37049.0 /tmpu/cab_g/afmv_a/scratch_qchem/qchem37049/ 1
/tmpu/appuserlic/qchem4.4/serial-multicore/exe/qcprog.exe_s ./8/24.qcin_37049.0 /tmpu/cab_g/afmv_a/scratch_qchem/qchem37049/
Check license passed

                  Welcome to Q-Chem
     A Quantum Leap Into The Future Of Chemistry


 Q-Chem 4.4, Q-Chem, Inc., Pleasanton, CA (2016)

 Y. Shao,  Z. Gan,  E. Epifanovsky,  A. T. B. Gilbert,  M. Wormit,  
 J. Kussmann,  A. W. Lange,  A. Behn,  J. Deng,  X. Feng,  D. Ghosh,  
 M. Goldey,  P. R. Horn,  L. D. Jacobson,  I. Kaliman,  F. Rob,  
 R. Z. Khaliullin,  T. Kus,  A. Landau,  J. Liu,  E. I. Proynov,  Y. M. Rhee,  
 R. M. Richard,  M. A. Rohrdanz,  R. P. Steele,  E. J. Sundstrom,  
 H. L. Woodcock III,  P. M. Zimmerman,  D. Zuev,  B. Albrecht,  E. Alguire,  
 B. Austin,  S. A. Baeppler,  G. J. O. Beran,  Y. A. Bernard,  E. Berquist,  
 K. Brandhorst,  K. B. Bravaya,  S. T. Brown,  D. Casanova,  C.-M. Chang,  
 Y. Chen,  S. H. Chien,  K. D. Closser,  M. P. Coons,  D. L. Crittenden,  
 S. Dasgupta,  M. Diedenhofen,  R. A. DiStasio Jr.,  H. Do,  A. D. Dutoi,  
 R. G. Edgar,  P.-T. Fang,  S. Fatehi,  Q. Feng,  L. Fusti-Molnar,  
 A. Ghysels,  A. Golubeva-Zadorozhnaya,  J. Gomes,  A. Gunina,  
 M. W. D. Hanson-Heine,  P. H. P. Harbach,  A. W. Hauser,  J. E. Herr,  
 E. G. Hohenstein,  Z. C. Holden,  K. Hui,  T.-C. Jagau,  H. Ji,  B. Kaduk,  
 K. Khistyaev,  Jaehoon Kim,  Jihan Kim,  R. A. King,  P. Klunzinger,  
 K. Koh,  D. Kosenkov,  T. Kowalczyk,  C. M. Krauter,  A. Kunitsa,  
 K. U. Lao,  A. Laurent,  K. V. Lawler,  J. Lee,  D. Lefrancois,  S. Lehtola,  
 S. V. Levchenko,  C. Y. Lin,  Y.-S. Lin,  F. Liu,  E. Livshits,  
 R. C. Lochan,  A. Luenser,  P. Manohar,  S. F. Manzer,  S.-P. Mao,  Y. Mao,  
 N. Mardirossian,  A. V. Marenich,  L. A. Martinez-Martinez,  S. A. Maurer,  
 N. J. Mayhall,  J.-M. Mewes,  A. F. Morrison,  K. Nanda,  T. S. Nguyen-Beck,  
 C. M. Oana,  R. Olivares-Amaya,  D. P. O'Neill,  J. A. Parkhill,  
 T. M. Perrine,  R. Peverati,  P. A. Pieniazek,  F. Plasser,  A. Prociuk,  
 D. R. Rehn,  E. Rosta,  N. J. Russ,  N. Sergueev,  S. M. Sharada,  
 S. Sharma,  D. W. Small,  A. Sodt,  T. Stauch,  T. Stein,  D. Stuck,  
 Y.-C. Su,  A. J. W. Thom,  T. Tsuchimochi,  L. Vogt,  O. Vydrov,  T. Wang,  
 M. A. Watson,  J. Wenzel,  A. White,  C. F. Williams,  V. Vanovschi,  
 K. Yao,  S. Yeganeh,  S. R. Yost,  Z.-Q. You,  I. Y. Zhang,  X. Zhang,  
 Y. Zhao,  B. R. Brooks,  G. K. L. Chan,  D. M. Chipman,  C. J. Cramer,  
 W. A. Goddard III,  M. S. Gordon,  W. J. Hehre,  A. Klamt,  
 H. F. Schaefer III,  M. W. Schmidt,  C. D. Sherrill,  D. G. Truhlar,  
 A. Warshel,  X. Xu,  A. Aspuru-Guzik,  R. Baer,  A. T. Bell,  N. A. Besley,  
 J.-D. Chai,  A. Dreuw,  B. D. Dunietz,  T. R. Furlani,  S. R. Gwaltney,  
 C.-P. Hsu,  Y. Jung,  J. Kong,  D. S. Lambrecht,  W. Liang,  C. Ochsenfeld,  
 V. A. Rassolov,  L. V. Slipchenko,  J. E. Subotnik,  T. Van Voorhis,  
 J. M. Herbert,  A. I. Krylov,  P. M. W. Gill,  M. Head-Gordon

 Contributors to earlier versions of Q-Chem not listed above: 
 R. D. Adamson,  J. Baker,  E. F. C. Byrd,  A. K. Chakraborty,  C.-L. Cheng,  
 H. Dachsel,  R. J. Doerksen,  G. Hawkins,  A. Heyden,  S. Hirata,  
 G. Kedziora,  F. J. Keil,  C. Kelley,  P. P. Korambath,  W. Kurlancheek,  
 A. M. Lee,  M. S. Lee,  D. Liotard,  I. Lotan,  P. E. Maslen,  N. Nair,  
 D. Neuhauser,  R. Olson,  B. Peters,  J. Ritchie,  N. E. Schultz,  
 N. Shenvi,  A. C. Simmonett,  K. S. Thanthiriwatte,  Q. Wu,  W. Zhang

 Please cite Q-Chem as follows:
 Y. Shao et al., Mol. Phys. 113, 184-215 (2015)
 DOI: 10.1080/00268976.2014.952696

 Q-Chem 4.4.2 for Intel X86 Linux

 Parts of Q-Chem use Armadillo 5.200.1 (Boston Tea Smuggler).
 http://arma.sourceforge.net/

 Q-Chem begins on Sat Oct 13 06:21:20 2018  

Host: 
0

     Scratch files written to /tmpu/cab_g/afmv_a/scratch_qchem/qchem37049//
 Dec716 11556_ 22328  22283 4050   
Processing $rem in /tmpu/appuserlic/qchem4.4/serial-multicore/config/preferences.
 MEM_TOTAL  2000 
FILE_GEOM_ORG=        593

Checking the input file for inconsistencies... 	...done.

--------------------------------------------------------------
User input:
--------------------------------------------------------------
$comment
SP
$end

$rem
MEM_STATIC 5000
MEM_TOTAL 20000
JOBTYPE SP
EXCHANGE B3LYP
BASIS 6-31g(d,p)
$end

$molecule
0 1
O         -10.541000      6.292000     -2.164000
C         -11.230000      7.408000     -2.822000
H         -10.561000      8.094000     -3.355000
H         -11.643000      7.909000     -1.938000
H         -12.115000      7.107000     -3.397000
O         -12.585000      5.502000     -1.370000
C         -11.341000      5.422000     -1.367000
C         -10.561000      4.371000     -0.684000
H          -9.806000      5.035000     -0.244000
H         -10.166000      3.751000     -1.498000
C         -11.348000      3.570000      0.412000
H         -11.258000      4.111000      1.362000
H         -12.400000      3.584000      0.101000
C         -10.783000      2.145000      0.645000
H         -10.671000      1.615000     -0.310000
H          -9.748000      2.274000      0.984000
C         -11.516000      1.301000      1.793000
C         -12.654000      0.629000      1.145000
C         -12.306000     -0.502000      0.386000
H         -11.269000     -0.806000      0.273000
C         -13.244000     -1.344000     -0.159000
H         -12.924000     -2.238000     -0.686000
C         -14.597000     -1.111000      0.104000
H         -15.420000     -1.695000     -0.298000
C         -14.913000      0.081000      0.726000
H         -15.956000      0.339000      0.882000
C         -13.967000      0.978000      1.344000
H         -14.258000      1.761000      2.037000
C         -13.766000      1.222000      6.768000
C         -13.220000     -1.051000      6.400000
C          -9.790000     -1.292000      9.340000
C          -9.630000      4.108000      6.076000
C          -7.298000     -0.889000      6.833000
C         -13.652000      0.160000      5.870000
C          -7.358000      2.748000      6.753000
C         -11.912000     -0.233000      9.564000
C         -10.045000     -1.444000      3.888000
C          -8.846000      3.618000      5.068000
C         -10.829000      0.529000      2.918000
C          -8.920000     -0.629000      3.681000
C          -7.641000      1.735000      4.616000
C          -6.924000      1.509000      7.280000
C         -12.381000     -0.846000      4.255000
C          -7.913000      0.042000      9.019000
C         -11.521000      1.779000      3.226000
C         -10.831000      2.985000      3.819000
C          -7.883000     -1.062000      8.134000
C         -10.556000      3.088000      9.306000
C          -9.845000      1.032000     10.104000
C         -11.243000      0.962000      9.929000
C         -12.927000     -0.146000      8.649000
C         -11.663000      3.547000      4.878000
C         -11.223000     -0.770000      3.444000
C         -12.881000     -1.191000      7.734000
C          -7.737000      2.886000      5.457000
C         -12.366000     -1.620000      5.418000
C          -7.885000     -0.674000      4.608000
C         -11.568000      4.055000      7.266000
C         -11.188000     -1.401000      9.267000
C          -9.342000      0.586000      3.220000
C         -12.675000      2.274000      8.519000
C          -7.114000      0.483000      5.060000
C         -10.067000     -2.315000      4.992000
C          -8.271000      2.450000      8.863000
C          -8.180000      3.323000      7.760000
C          -9.038000     -2.361000      5.925000
C         -11.047000      4.125000      6.021000
C          -9.442000      2.916000      3.991000
C         -10.482000      3.979000      8.184000
C         -12.691000      1.637000      4.156000
C         -10.972000     -2.529000      7.147000
C          -8.722000      1.777000      3.730000
C          -7.946000     -1.548000      5.761000
C         -12.626000      3.117000      7.420000
C          -8.991000     -1.930000      8.359000
C         -13.366000      1.070000      8.118000
C          -9.112000     -0.133000      9.785000
C         -11.230000     -2.404000      5.761000
C          -9.578000     -2.571000      7.251000
C         -13.113000      0.307000      4.596000
C         -12.814000      2.723000      5.100000
C          -9.428000      2.306000      9.715000
C         -11.741000     -1.958000      8.123000
C          -6.798000      0.383000      6.436000
C          -9.339000      4.045000      7.399000
C          -7.578000      1.327000      8.540000
C         -13.335000      2.490000      6.391000
C         -11.651000      2.237000      9.467000
O          -9.263000     13.310000      9.667000
C         -10.546000     14.004000      9.905000
H         -11.129000     14.267000      9.014000
H         -10.347000     14.911000     10.490000
H         -11.184000     13.350000     10.512000
O          -8.610000     14.629000      7.890000
C          -8.356000     13.762000      8.755000
C          -7.077000     13.066000      8.885000
H          -7.489000     12.050000      8.866000
H          -6.658000     13.060000      9.899000
C          -6.070000     13.134000      7.709000
H          -6.153000     14.169000      7.354000
H          -5.053000     12.955000      8.080000
C          -6.330000     12.125000      6.473000
H          -5.324000     11.933000      6.080000
H          -6.624000     11.133000      6.837000
C          -7.231000     12.663000      5.267000
C          -6.665000     13.866000      4.591000
C          -7.219000     15.157000      4.740000
H          -7.973000     15.271000      5.512000
C          -6.674000     16.204000      4.016000
H          -7.008000     17.205000      4.274000
C          -5.678000     15.994000      3.076000
H          -5.252000     16.847000      2.556000
C          -5.080000     14.710000      3.001000
H          -4.212000     14.401000      2.428000
C          -5.545000     13.636000      3.774000
H          -5.071000     12.660000      3.713000
C         -12.319000     13.676000      3.634000
C         -11.189000     12.735000      1.668000
C         -13.325000      8.781000      1.528000
C         -11.827000     10.525000      7.593000
C         -10.764000      6.960000      3.078000
C         -11.192000     13.453000      2.866000
C         -11.759000      7.860000      6.516000
C         -14.201000     11.041000      2.036000
C          -8.303000     10.198000      2.714000
C         -10.611000      9.859000      7.321000
C          -8.011000     11.545000      4.589000
C          -8.202000      9.291000      3.773000
C          -9.427000      8.374000      6.012000
C         -11.785000      7.138000      5.299000
C          -9.248000     12.406000      2.641000
C         -13.202000      7.438000      3.316000
C          -8.776000     12.516000      5.457000
C          -9.553000     11.902000      6.637000
C         -12.034000      7.232000      2.490000
C         -14.724000     10.473000      5.499000
C         -14.774000      9.222000      3.569000
C         -14.825000     10.571000      3.223000
C         -13.595000     12.285000      2.065000
C         -10.819000     12.554000      6.677000
C          -8.294000     11.510000      3.197000
C         -12.422000     12.111000      1.286000
C         -10.598000      8.624000      6.748000
C          -9.967000     12.060000      1.510000
C          -8.857000      8.061000      3.743000
C         -13.259000     12.060000      6.641000
C         -13.487000     10.145000      1.214000
C          -7.997000     10.074000      4.943000
C         -14.144000     12.599000      4.398000
C          -9.474000      7.644000      4.830000
C          -9.197000      9.821000      1.668000
C         -13.761000      8.179000      5.595000
C         -12.955000      8.566000      6.680000
C          -9.758000      8.555000      1.597000
C         -11.963000     11.876000      7.220000
C          -9.497000     10.479000      6.871000
C         -13.885000     10.807000      6.602000
C          -9.795000     13.380000      4.841000
C         -11.156000     10.147000      0.643000
C          -8.733000      9.616000      6.051000
C          -9.657000      7.647000      2.626000
C         -13.375000     12.936000      5.521000
C         -12.140000      8.099000      1.444000
C         -13.490000     12.993000      3.247000
C         -14.035000      8.339000      2.728000
C          -9.962000     10.780000      0.996000
C         -11.006000      8.765000      0.927000
C          -9.934000     13.317000      3.457000
C         -10.967000     13.431000      5.598000
C         -14.632000      9.183000      4.985000
C         -12.369000     10.819000      0.725000
C         -10.656000      7.002000      4.443000
C         -13.051000      9.863000      7.179000
C         -13.082000      7.351000      4.734000
C         -12.227000     13.627000      5.043000
C         -14.790000     11.317000      4.392000
$end

--------------------------------------------------------------
 ----------------------------------------------------------------
             Standard Nuclear Orientation (Angstroms)
    I     Atom           X                Y                Z
 ----------------------------------------------------------------
    1      O      -0.7126846399    -6.3394813404    -2.8925260814
    2      C      -1.8323002841    -7.1640478064    -2.4238130003
    3      H      -2.6041407126    -7.3418087047    -3.1820408131
    4      H      -2.2276859692    -6.5016978184    -1.6440767287
    5      H      -1.5231033375    -8.0648113818    -1.8784019358
    6      O       0.2762278404    -6.4907311668    -0.7873782014
    7      C       0.2732549795    -5.9839449248    -1.9262828801
    8      C       1.3243237417    -5.0961326581    -2.4615714344
    9      H       0.6514131952    -4.3531128220    -2.9083755521
   10      H       1.8451662677    -5.7080669365    -3.2080836593
   11      C       2.2662401163    -4.4592893921    -1.3801787223
   12      H       1.8032401640    -3.5293145589    -1.0279588282
   13      H       2.2958499464    -5.1717017638    -0.5463844608
   14      C       3.6651400658    -4.0883590858    -1.9366215667
   15      H       4.1033404259    -4.9398277415    -2.4736975137
   16      H       3.4968797809    -3.3501272572    -2.7300251486
   17      C       4.6506364501    -3.3842466640    -0.8875497989
   18      C       5.3392842052    -4.4736722820    -0.1766010722
   19      C       6.3759438641    -5.0805653785    -0.9069184834
   20      H       6.5995630560    -4.7753947856    -1.9254563404
   21      C       7.2290547101    -6.0030426650    -0.3527790240
   22      H       8.0517012407    -6.3979263439    -0.9415782816
   23      C       7.1098044604    -6.3041722026     1.0070619150
   24      H       7.7109397289    -7.0362811137     1.5387027064
   25      C       5.9987171687    -5.8059771185     1.6588983121
   26      H       5.8248863939    -6.0767395940     2.6958262476
   27      C       5.0966064251    -4.8109154749     1.1321179672
   28      H       4.3965041298    -4.2585217938     1.7507753822
   29      C       5.3021192521     0.2268475868     3.1565736500
   30      C       7.4941919028    -0.0006799210     2.2945308857
   31      C       7.7557194611     4.0675215426     0.3329190005
   32      C       2.0989689006     1.4317085232    -0.6120459845
   33      C       6.9760021673     2.8209613892    -2.9067801716
   34      C       6.2739242221    -0.5988072283     2.5898874700
   35      C       3.3574608529     2.9077975843    -2.5374737524
   36      C       6.8631421884     3.4586002430     2.4559031415
   37      C       7.4599550787    -1.0131552719    -1.6448776364
   38      C       2.4481876889     0.8084380670    -1.7784079250
   39      C       5.4681282022    -2.1174571216    -1.1335772171
   40      C       6.5572677650    -0.7010216029    -2.6746480896
   41      C       4.2015534248     0.7932775625    -3.2370020273
   42      C       4.6051764727     3.5025891524    -2.8385297650
   43      C       7.0520842566    -1.6025114821     0.6865360228
   44      C       6.2773404032     4.6092014983    -1.3778422882
   45      C       4.2976803056    -2.0560709789    -0.2603581937
   46      C       3.1032810410    -1.1727013787    -0.5346819919
   47      C       7.2975940187     3.7589574858    -1.8668296901
   48      C       3.4494059631     3.9455601187     1.4343278563
   49      C       5.5139706241     4.8590839749     0.9123049403
   50      C       5.6616781037     4.1250414674     2.1078354074
   51      C       6.7663309772     2.2145273248     3.0197552174
   52      C       2.6900156337    -0.5189085025     0.7027813724
   53      C       6.8304925375    -1.8648086251    -0.6869843880
   54      C       7.7243129404     1.3464661196     2.5097490388
   55      C       3.1352221417     1.5788447375    -2.7011664105
   56      C       7.9195036914    -0.5756656756     1.0673787906
   57      C       6.6120150135     0.5642844692    -3.2478690615
   58      C       2.3818307541     1.7219957247     1.6263631632
   59      C       7.9508766799     3.4244636402     1.5658035020
   60      C       5.3382285194    -1.2319768646    -2.3602282624
   61      C       4.3326608825     2.3215753263     2.9688180458
   62      C       5.4489445609     1.3497516563    -3.6573839210
   63      C       8.4212491232    -0.0601071958    -1.2633620735
   64      C       3.8939698693     4.4427946398    -0.8850769735
   65      C       2.9261822052     3.5189419323    -1.3288136208
   66      C       8.4779001493     1.2081658058    -1.8288001821
   67      C       2.1716585146     0.8036781948     0.6574015830
   68      C       3.0941040518    -0.4521108376    -1.7364852433
   69      C       2.4632380867     2.9983595994     1.0001330892
   70      C       4.5958084766    -1.6935650085     1.1657108842
   71      C       8.8775457099     1.5234248434     0.4078846784
   72      C       4.1563370494    -0.4536025150    -2.6056807528
   73      C       7.5830548548     1.5459086612    -2.8114042033
   74      C       3.3978322066     1.3826936333     2.5620656476
   75      C       8.2533717489     3.4674871280    -0.8503421295
   76      C       5.5414731573     1.6128828332     3.3215585091
   77      C       6.5962522217     4.8087250783     0.0054391702
   78      C       8.6525242071     0.1612113352     0.0965573886
   79      C       8.8354087730     2.1854518644    -0.8232776594
   80      C       5.9835376364    -1.5323017930     1.6002059412
   81      C       3.6046561745    -0.8284470320     1.7614029195
   82      C       4.1865854789     4.7394217239     0.4975572797
   83      C       8.4440803231     2.1277614454     1.5554312046
   84      C       5.6444029285     2.7278077015    -3.4004995835
   85      C       2.2547977905     2.7531249629    -0.3502159827
   86      C       4.9368179198     4.3745802074    -1.7531332704
   87      C       3.9807885519     0.1235361092     2.7333409491
   88      C       4.3819733429     3.6019326946     2.4148304190
   89      O      -6.7681116874     5.3205393401     1.3775898423
   90      C      -7.3524493468     5.0485710954     2.7076093059
   91      H      -7.6509291311     4.0117355169     2.9046392564
   92      H      -8.2176131259     5.7089558831     2.8485297353
   93      H      -6.6081884000     5.3080567546     3.4704669832
   94      O      -8.2740209844     4.0345595602     0.1933634303
   95      C      -7.3553985269     4.8827220520     0.2277606418
   96      C      -6.7374981188     5.4883416386    -0.9506200276
   97      H      -5.7016479589     5.2512750831    -0.6801114427
   98      H      -6.6731401390     6.5833113898    -0.9243085386
   99      C      -6.9721440900     4.8313117764    -2.3344198788
  100      H      -8.0257708222     4.5263061547    -2.3030944892
  101      H      -6.8302859412     5.5757521470    -3.1279284171
  102      C      -6.0569038735     3.5475385766    -2.6916854910
  103      H      -5.9663887914     3.5905360523    -3.7840715203
  104      H      -5.0201790834     3.7089414143    -2.3720813083
  105      C      -6.6344186767     2.1076658336    -2.3057785903
  106      C      -7.9255488002     1.7836999357    -2.9785118963
  107      C      -9.1594649168     1.7586196935    -2.2910382615
  108      H      -9.1569569655     2.1600102792    -1.2828838547
  109      C     -10.2981941203     1.3744273344    -2.9788623903
  110      H     -11.2491691260     1.5238532873    -2.4754347162
  111      C     -10.2356561682     0.9139056913    -4.2841304934
  112      H     -11.1562476215     0.6572010046    -4.7999784166
  113      C      -9.0053306179     1.0247539555    -4.9811934050
  114      H      -8.8046329519     0.8414110713    -6.0315932497
  115      C      -7.8409127641     1.4849114703    -4.3490414270
  116      H      -6.9073452059     1.5734753774    -4.8982053812
  117      C      -7.4419325493    -1.4074578740     1.7651462021
  118      C      -6.7488739788    -2.7853529042    -0.1449878517
  119      C      -2.6878094640    -3.9856954466     1.3660200197
  120      C      -4.0052747380     2.2420033354     2.6109369379
  121      C      -0.9159681624    -1.6192890825    -0.5149269020
  122      C      -7.3605524886    -1.6583751692     0.4086434205
  123      C      -1.4520144050     1.1532146330     1.8611510793
  124      C      -4.8330933099    -3.7660205479     2.5836160772
  125      C      -4.3297208719    -0.7818087395    -2.5930462713
  126      C      -3.4472085818     2.4570375068     1.3308906613
  127      C      -5.5287487644     1.1145273921    -1.9753575236
  128      C      -3.3446487383     0.1786422972    -2.3450589776
  129      C      -2.1610288168     1.6724132229    -0.4157255946
  130      C      -0.8360464583    -0.0031267833     1.3258875764
  131      C      -6.4681482153    -1.1224604401    -1.5515555531
  132      C      -1.2087300094    -2.3739534461     1.8459509431
  133      C      -6.3693289350     1.6423334222    -0.8367901030
  134      C      -5.6068375840     2.3692902848     0.2871608121
  135      C      -1.1519126061    -2.6601231041     0.4303893197
  136      C      -3.9390000772    -0.8523165250     4.4000543938
  137      C      -2.8561895517    -2.6950713493     3.5490684813
  138      C      -4.2233428503    -2.9628969015     3.5848362256
  139      C      -6.1076654314    -3.4290513563     2.1622721903
  140      C      -6.1673971193     1.9216853599     1.5179665801
  141      C      -5.5935533996    -0.2714711978    -2.2816029611
  142      C      -6.0789948748    -3.6687229680     0.7641371761
  143      C      -2.2690462074     1.8775627602     0.9705221865
  144      C      -6.1725608510    -2.4644271253    -1.3854485819
  145      C      -2.0808199607    -0.1785428018    -1.8781750241
  146      C      -5.5170223412     0.8672448294     3.6776192873
  147      C      -4.0597680136    -4.2689343904     1.5171538636
  148      C      -4.0371669245     1.3683509019    -1.9858570877
  149      C      -6.1848205869    -1.5111392595     3.6314713839
  150      C      -1.5327328911     0.5389873533    -0.9185406976
  151      C      -3.9844409787    -2.1193567185    -2.2363556502
  152      C      -1.7143164802    -0.4877079907     3.3432362875
  153      C      -2.0603654626     0.8499471502     3.0833154810
  154      C      -2.6945645075    -2.4773382429    -1.8749889151
  155      C      -5.3710585832     1.9149541639     2.7134031644
  156      C      -4.1759783808     2.5333350335     0.1946823760
  157      C      -4.2330230824     0.5125370393     4.1122850063
  158      C      -7.2128912572     0.7084915725    -0.0747828797
  159      C      -4.2654107993    -3.8371447282    -0.8346273193
  160      C      -3.4386162831     2.0543379719    -0.9133446778
  161      C      -1.7110505331    -1.5442791530    -1.6391775565
  162      C      -6.4754675823    -0.1564973047     3.4157667283
  163      C      -2.0957800656    -3.6127949006     0.1883734793
  164      C      -6.7179486303    -2.2730502406     2.6101882957
  165      C      -2.0990678666    -3.2044316377     2.4534363119
  166      C      -4.9441099234    -2.9956779636    -1.7190679240
  167      C      -2.8773115142    -3.5870602970    -0.9886343054
  168      C      -7.2587590060    -0.6128184981    -0.5115686933
  169      C      -7.1212194754     0.9222900864     1.3018508697
  170      C      -2.7063955300    -1.3485392981     3.9862803134
  171      C      -4.8458060739    -4.2238110797     0.3667499977
  172      C      -0.8487773566    -0.3290208142    -0.0595740813
  173      C      -3.3009391113     1.3312201272     3.4953583718
  174      C      -1.0095829867    -1.0370161353     2.2994176895
  175      C      -7.2794661846    -0.0882342887     2.2441032066
  176      C      -4.8678528618    -1.8454096854     4.0948667806
 ----------------------------------------------------------------
 Molecular Point Group                 C1    NOp =  1
 Largest Abelian Subgroup              C1    NOp =  1
 Nuclear Repulsion Energy = 34909.4102223522 hartrees
 There are      462 alpha and      462 beta electrons
 Requested basis set is 6-31G(d,p)
 There are 676 shells and 2360 basis functions

 Total QAlloc Memory Limit  20000 MB
 Mega-Array Size      4888 MB
 MEM_STATIC part      5000 MB
 A cutoff of  1.0D-08 yielded  38147 shell pairs
 There are    535930 function pairs
 
 -------------------------------------------------------
 OpenMP Integral Computing Module                       
 Release: version 1.0, May 2013, Q-Chem Inc. Pittsburgh 
 -------------------------------------------------------
 Integral Job Info:
 Integral job number is                      11
 Integral operator is                         1
 short-range coefficients                     0
 long-range coefficients              100000000
 Omega coefficients                           0
 if combine SR and LR in K                    0
 Integral screening is                        0
 Integral computing path is                   2
 max size of driver memory is            800000
 size of driver memory is                593474
 size of scratch memory is              2260544
 max col of scratch BK array               1296
 max len of scratch array in speh3          155
 max len of scratch index in speh4           18
 max int batch size is                      520
 min int batch size is                       52
 fixed nKL is                                52
 max L of basis functions is                  2
 order of int derivative is                   0
 number of shells is                        676
 number of basis is                        2360
 number of cartesian basis is              2360
 number of contracted shell pairs         38147
 number of primitive shell pairs         115119
 maxK2 (contraction) of shell pair           36
 max number of K2 of shell pair               1
 max number of CS2 of shell pair           7317
 max number of PS2 of shell pair          35004
 mem total for path MDJ                 1528168
 -------------------------------------------------------
 Smallest overlap matrix eigenvalue = 2.68E-04

 Scale SEOQF with 1.000000e-02/1.000000e-02/1.000000e-02

 Standard Electronic Orientation quadrupole field applied
 Nucleus-field energy     =     0.0000001152 hartrees
 Guess from superposition of atomic densities
 Warning:  Energy on first SCF cycle will be non-variational
 A restricted hybrid HF-DFT SCF calculation will be
 performed using Pulay DIIS extrapolation
 Exchange:     0.2000 Hartree-Fock + 0.0800 Slater + 0.7200 B88
 Correlation:  0.1900 VWN1RPA + 0.8100 LYP
 Using SG-1 standard quadrature grid
 SCF converges when DIIS error is below 1.0E-05
 using 16 threads for integral computing 
 -------------------------------------------------------
 OpenMP BLAS3 based DFT computing Module                
 Release: version 1.0, May 2013, Q-Chem Inc. Pittsburgh 
 -------------------------------------------------------
 ---------------------------------------
  Cycle       Energy         DIIS Error
 ---------------------------------------
    1   -5858.2048713180      1.83E-02
    2   -5803.0885434510      1.29E-03
    3   -5802.2055576274      1.84E-03
    4   -5803.9470096819      6.52E-04
    5   -5804.1793072208      2.80E-04
    6   -5804.2236316931      1.42E-04
    7   -5804.2369671273      4.74E-05
    8   -5804.2379672491      2.85E-05
    9   -5804.2385729475      8.99E-06 Convergence criterion met
 ---------------------------------------
 SCF time:  CPU 8332.08 s  wall 859.83 s
 SCF   energy in the final basis set = -5804.2385729475
 Total energy in the final basis set = -5804.2385729475
 
 --------------------------------------------------------------
 
                    Orbital Energies (a.u.)
 --------------------------------------------------------------
 
 Alpha MOs
 -- Occupied --
-19.198 -19.182 -19.138 -19.136 -10.324 -10.317 -10.252 -10.238
-10.238 -10.237 -10.236 -10.235 -10.233 -10.233 -10.232 -10.231
-10.229 -10.227 -10.226 -10.226 -10.225 -10.224 -10.223 -10.223
-10.221 -10.221 -10.221 -10.221 -10.220 -10.220 -10.220 -10.220
-10.220 -10.219 -10.219 -10.219 -10.219 -10.219 -10.219 -10.218
-10.217 -10.217 -10.217 -10.217 -10.217 -10.217 -10.217 -10.217
-10.217 -10.216 -10.216 -10.216 -10.216 -10.216 -10.216 -10.216
-10.215 -10.215 -10.215 -10.215 -10.215 -10.215 -10.215 -10.215
-10.215 -10.215 -10.215 -10.215 -10.214 -10.214 -10.214 -10.214
-10.214 -10.214 -10.214 -10.214 -10.214 -10.213 -10.213 -10.213
-10.213 -10.213 -10.213 -10.213 -10.213 -10.213 -10.212 -10.212
-10.212 -10.212 -10.212 -10.212 -10.211 -10.211 -10.211 -10.211
-10.211 -10.211 -10.211 -10.211 -10.211 -10.211 -10.210 -10.210
-10.210 -10.210 -10.210 -10.209 -10.209 -10.209 -10.209 -10.209
-10.209 -10.209 -10.209 -10.208 -10.208 -10.208 -10.208 -10.208
-10.207 -10.207 -10.207 -10.207 -10.206 -10.205 -10.205 -10.205
-10.205 -10.205 -10.204 -10.204 -10.204 -10.203 -10.203 -10.202
-10.199 -10.198 -10.197 -10.195 -10.195 -10.194 -10.193 -10.192
-10.192 -10.191 -10.190 -10.188  -1.087  -1.065  -1.000  -0.991
 -0.983  -0.981  -0.965  -0.965  -0.963  -0.962  -0.961  -0.956
 -0.934  -0.931  -0.929  -0.928  -0.925  -0.924  -0.922  -0.921
 -0.919  -0.915  -0.897  -0.895  -0.891  -0.888  -0.885  -0.879
 -0.871  -0.870  -0.853  -0.851  -0.843  -0.841  -0.841  -0.838
 -0.835  -0.832  -0.817  -0.816  -0.804  -0.803  -0.800  -0.799
 -0.795  -0.795  -0.793  -0.791  -0.791  -0.786  -0.785  -0.783
 -0.772  -0.770  -0.768  -0.766  -0.766  -0.764  -0.763  -0.763
 -0.749  -0.746  -0.742  -0.739  -0.733  -0.732  -0.716  -0.716
 -0.713  -0.712  -0.712  -0.712  -0.709  -0.708  -0.708  -0.707
 -0.706  -0.705  -0.704  -0.704  -0.702  -0.693  -0.675  -0.673
 -0.658  -0.657  -0.657  -0.653  -0.647  -0.647  -0.634  -0.630
 -0.629  -0.626  -0.624  -0.622  -0.621  -0.620  -0.617  -0.617
 -0.616  -0.614  -0.613  -0.612  -0.611  -0.608  -0.607  -0.605
 -0.604  -0.603  -0.600  -0.600  -0.564  -0.563  -0.562  -0.561
 -0.559  -0.557  -0.556  -0.555  -0.555  -0.552  -0.550  -0.543
 -0.537  -0.536  -0.532  -0.531  -0.528  -0.527  -0.526  -0.524
 -0.523  -0.520  -0.520  -0.519  -0.514  -0.513  -0.512  -0.510
 -0.508  -0.504  -0.503  -0.493  -0.492  -0.490  -0.485  -0.484
 -0.484  -0.483  -0.480  -0.480  -0.477  -0.477  -0.474  -0.472
 -0.471  -0.470  -0.470  -0.468  -0.467  -0.467  -0.466  -0.463
 -0.463  -0.462  -0.462  -0.461  -0.460  -0.457  -0.457  -0.454
 -0.452  -0.450  -0.449  -0.448  -0.447  -0.446  -0.446  -0.446
 -0.444  -0.441  -0.439  -0.438  -0.436  -0.435  -0.432  -0.432
 -0.429  -0.429  -0.428  -0.427  -0.427  -0.425  -0.425  -0.424
 -0.422  -0.421  -0.420  -0.419  -0.419  -0.417  -0.417  -0.416
 -0.416  -0.415  -0.414  -0.414  -0.412  -0.412  -0.411  -0.411
 -0.410  -0.409  -0.407  -0.406  -0.400  -0.400  -0.398  -0.396
 -0.394  -0.394  -0.390  -0.390  -0.385  -0.385  -0.381  -0.378
 -0.376  -0.374  -0.373  -0.369  -0.369  -0.366  -0.365  -0.364
 -0.363  -0.362  -0.361  -0.360  -0.359  -0.358  -0.357  -0.357
 -0.356  -0.354  -0.354  -0.352  -0.352  -0.350  -0.349  -0.348
 -0.348  -0.347  -0.346  -0.346  -0.345  -0.343  -0.343  -0.341
 -0.341  -0.340  -0.339  -0.337  -0.337  -0.337  -0.333  -0.332
 -0.331  -0.331  -0.330  -0.327  -0.326  -0.324  -0.320  -0.320
 -0.304  -0.304  -0.302  -0.289  -0.287  -0.285  -0.273  -0.272
 -0.269  -0.268  -0.267  -0.266  -0.265  -0.264  -0.263  -0.262
 -0.261  -0.260  -0.260  -0.258  -0.257  -0.253  -0.252  -0.251
 -0.247  -0.244  -0.240  -0.239  -0.223  -0.220  -0.212  -0.211
 -0.209  -0.208  -0.206  -0.202  -0.199  -0.196
 -- Virtual --
 -0.122  -0.121  -0.119  -0.116  -0.109  -0.107  -0.077  -0.074
 -0.072  -0.071  -0.062  -0.060  -0.057  -0.056  -0.026  -0.022
 -0.020  -0.020  -0.019  -0.017  -0.015  -0.014  -0.012  -0.011
 -0.010  -0.008  -0.006  -0.005  -0.003  -0.002  -0.001   0.002
  0.006   0.008   0.032   0.039   0.043   0.044   0.048   0.048
  0.049   0.050   0.055   0.055   0.060   0.065   0.068   0.070
  0.070   0.070   0.082   0.083   0.085   0.088   0.090   0.091
  0.093   0.094   0.096   0.097   0.098   0.102   0.104   0.107
  0.109   0.110   0.111   0.112   0.114   0.116   0.118   0.120
  0.122   0.125   0.126   0.130   0.132   0.133   0.134   0.136
  0.141   0.145   0.147   0.148   0.150   0.152   0.154   0.159
  0.159   0.160   0.162   0.163   0.164   0.165   0.167   0.170
  0.173   0.173   0.174   0.175   0.178   0.178   0.181   0.182
  0.184   0.187   0.188   0.189   0.191   0.192   0.193   0.195
  0.196   0.196   0.198   0.200   0.202   0.205   0.206   0.207
  0.208   0.209   0.211   0.213   0.214   0.216   0.219   0.220
  0.222   0.222   0.224   0.226   0.227   0.228   0.229   0.229
  0.230   0.232   0.232   0.235   0.237   0.240   0.240   0.243
  0.243   0.244   0.247   0.248   0.249   0.254   0.257   0.264
  0.264   0.266   0.271   0.272   0.275   0.276   0.279   0.282
  0.283   0.288   0.288   0.291   0.292   0.293   0.302   0.307
  0.309   0.309   0.311   0.313   0.314   0.314   0.315   0.316
  0.317   0.319   0.322   0.323   0.325   0.328   0.332   0.335
  0.335   0.340   0.342   0.343   0.344   0.347   0.349   0.350
  0.357   0.358   0.365   0.366   0.372   0.373   0.391   0.391
  0.394   0.396   0.398   0.399   0.401   0.405   0.405   0.407
  0.409   0.411   0.411   0.416   0.416   0.420   0.422   0.423
  0.425   0.433   0.434   0.439   0.439   0.441   0.441   0.445
  0.445   0.449   0.452   0.452   0.453   0.456   0.459   0.460
  0.462   0.464   0.466   0.468   0.472   0.474   0.475   0.476
  0.476   0.478   0.478   0.480   0.481   0.482   0.483   0.484
  0.485   0.487   0.488   0.489   0.492   0.493   0.494   0.495
  0.495   0.496   0.498   0.498   0.500   0.501   0.502   0.503
  0.504   0.505   0.507   0.508   0.509   0.509   0.510   0.511
  0.513   0.514   0.514   0.515   0.516   0.516   0.517   0.518
  0.518   0.519   0.520   0.522   0.523   0.523   0.525   0.526
  0.527   0.528   0.529   0.530   0.532   0.532   0.533   0.534
  0.535   0.535   0.536   0.536   0.537   0.539   0.539   0.540
  0.540   0.542   0.543   0.544   0.545   0.545   0.547   0.547
  0.548   0.549   0.549   0.549   0.551   0.552   0.553   0.553
  0.554   0.554   0.555   0.556   0.556   0.557   0.557   0.558
  0.559   0.560   0.561   0.561   0.562   0.564   0.565   0.565
  0.567   0.567   0.568   0.569   0.569   0.570   0.571   0.573
  0.574   0.574   0.575   0.576   0.578   0.578   0.580   0.580
  0.581   0.582   0.582   0.584   0.585   0.586   0.586   0.587
  0.588   0.588   0.588   0.589   0.590   0.591   0.592   0.594
  0.594   0.595   0.596   0.596   0.597   0.599   0.600   0.602
  0.602   0.603   0.604   0.605   0.606   0.607   0.608   0.610
  0.611   0.612   0.613   0.613   0.614   0.614   0.615   0.617
  0.618   0.618   0.619   0.620   0.621   0.623   0.623   0.625
  0.625   0.628   0.628   0.628   0.629   0.630   0.632   0.633
  0.634   0.634   0.635   0.636   0.638   0.638   0.639   0.640
  0.641   0.642   0.643   0.645   0.646   0.647   0.648   0.649
  0.650   0.651   0.653   0.654   0.654   0.655   0.656   0.657
  0.658   0.659   0.660   0.660   0.662   0.663   0.664   0.665
  0.665   0.667   0.668   0.668   0.669   0.670   0.671   0.671
  0.672   0.672   0.673   0.674   0.675   0.676   0.677   0.679
  0.680   0.681   0.683   0.684   0.685   0.686   0.687   0.688
  0.689   0.690   0.691   0.692   0.694   0.694   0.697   0.697
  0.697   0.698   0.700   0.701   0.702   0.702   0.705   0.706
  0.706   0.709   0.709   0.710   0.712   0.713   0.714   0.715
  0.716   0.717   0.718   0.720   0.721   0.722   0.722   0.723
  0.724   0.726   0.727   0.727   0.729   0.731   0.733   0.734
  0.734   0.736   0.738   0.738   0.740   0.741   0.742   0.742
  0.745   0.747   0.749   0.749   0.751   0.754   0.757   0.758
  0.761   0.762   0.763   0.764   0.765   0.767   0.768   0.769
  0.770   0.771   0.772   0.775   0.775   0.777   0.778   0.779
  0.781   0.781   0.784   0.785   0.786   0.786   0.787   0.788
  0.790   0.792   0.793   0.794   0.795   0.796   0.797   0.799
  0.800   0.801   0.802   0.803   0.803   0.804   0.806   0.807
  0.807   0.808   0.810   0.810   0.811   0.811   0.813   0.813
  0.814   0.814   0.816   0.817   0.818   0.819   0.820   0.820
  0.821   0.821   0.823   0.824   0.825   0.825   0.826   0.827
  0.828   0.829   0.830   0.830   0.831   0.832   0.833   0.835
  0.837   0.838   0.842   0.844   0.845   0.848   0.850   0.850
  0.852   0.855   0.857   0.859   0.859   0.861   0.864   0.865
  0.867   0.871   0.874   0.876   0.878   0.884   0.888   0.889
  0.891   0.894   0.896   0.898   0.903   0.906   0.910   0.914
  0.915   0.920   0.921   0.922   0.922   0.923   0.925   0.927
  0.928   0.932   0.932   0.934   0.934   0.937   0.938   0.940
  0.941   0.941   0.942   0.945   0.946   0.949   0.950   0.950
  0.952   0.955   0.955   0.964   0.966   0.969   0.970   0.975
  0.977   0.978   0.978   0.982   0.987   0.990   0.994   0.996
  0.999   1.000   1.001   1.002   1.003   1.006   1.007   1.008
  1.010   1.011   1.014   1.014   1.015   1.017   1.018   1.021
  1.023   1.025   1.026   1.027   1.028   1.029   1.032   1.034
  1.034   1.035   1.037   1.039   1.041   1.042   1.046   1.046
  1.048   1.051   1.051   1.052   1.054   1.056   1.057   1.059
  1.061   1.063   1.065   1.066   1.068   1.070   1.070   1.071
  1.073   1.075   1.076   1.078   1.079   1.081   1.082   1.084
  1.085   1.087   1.088   1.090   1.092   1.093   1.096   1.096
  1.102   1.102   1.105   1.106   1.108   1.110   1.111   1.114
  1.115   1.118   1.120   1.122   1.123   1.127   1.128   1.129
  1.132   1.134   1.138   1.140   1.143   1.144   1.145   1.146
  1.148   1.149   1.153   1.154   1.156   1.158   1.161   1.163
  1.163   1.165   1.168   1.170   1.171   1.172   1.174   1.175
  1.179   1.180   1.181   1.182   1.183   1.184   1.185   1.187
  1.188   1.189   1.193   1.197   1.198   1.199   1.201   1.203
  1.203   1.207   1.208   1.213   1.214   1.216   1.218   1.223
  1.225   1.229   1.230   1.234   1.236   1.239   1.240   1.243
  1.247   1.248   1.251   1.256   1.257   1.259   1.260   1.263
  1.264   1.265   1.268   1.269   1.272   1.274   1.276   1.278
  1.280   1.284   1.286   1.287   1.287   1.288   1.291   1.294
  1.295   1.299   1.301   1.306   1.307   1.310   1.313   1.314
  1.318   1.319   1.323   1.327   1.331   1.333   1.334   1.336
  1.337   1.337   1.338   1.342   1.343   1.344   1.346   1.349
  1.353   1.353   1.355   1.357   1.359   1.361   1.363   1.365
  1.367   1.370   1.372   1.376   1.378   1.379   1.380   1.384
  1.389   1.390   1.392   1.394   1.395   1.397   1.399   1.401
  1.403   1.406   1.408   1.411   1.418   1.421   1.422   1.424
  1.430   1.433   1.439   1.443   1.444   1.446   1.448   1.453
  1.453   1.455   1.457   1.458   1.461   1.462   1.463   1.465
  1.465   1.467   1.471   1.473   1.475   1.477   1.478   1.480
  1.482   1.483   1.485   1.487   1.488   1.491   1.493   1.495
  1.498   1.502   1.503   1.507   1.509   1.512   1.515   1.518
  1.519   1.521   1.524   1.530   1.530   1.532   1.538   1.539
  1.541   1.542   1.545   1.547   1.550   1.552   1.555   1.557
  1.558   1.559   1.563   1.565   1.571   1.574   1.576   1.577
  1.579   1.581   1.582   1.583   1.584   1.588   1.588   1.593
  1.594   1.597   1.601   1.608   1.613   1.618   1.619   1.621
  1.624   1.627   1.629   1.633   1.637   1.638   1.640   1.641
  1.648   1.653   1.655   1.657   1.661   1.663   1.665   1.669
  1.676   1.680   1.684   1.688   1.692   1.696   1.701   1.704
  1.704   1.708   1.708   1.710   1.714   1.717   1.719   1.720
  1.721   1.723   1.727   1.728   1.728   1.730   1.735   1.736
  1.737   1.737   1.740   1.741   1.743   1.745   1.747   1.748
  1.749   1.751   1.752   1.753   1.755   1.757   1.758   1.759
  1.760   1.761   1.761   1.764   1.764   1.766   1.769   1.770
  1.771   1.772   1.775   1.776   1.776   1.777   1.777   1.778
  1.779   1.782   1.782   1.784   1.785   1.785   1.786   1.788
  1.790   1.791   1.793   1.793   1.794   1.796   1.798   1.799
  1.799   1.800   1.802   1.803   1.806   1.806   1.808   1.810
  1.810   1.812   1.814   1.815   1.818   1.820   1.823   1.824
  1.826   1.827   1.830   1.831   1.834   1.837   1.840   1.843
  1.846   1.847   1.848   1.850   1.850   1.853   1.853   1.856
  1.858   1.861   1.861   1.862   1.862   1.865   1.867   1.869
  1.870   1.873   1.873   1.874   1.877   1.880   1.882   1.883
  1.884   1.886   1.889   1.891   1.892   1.898   1.901   1.904
  1.906   1.907   1.908   1.913   1.915   1.920   1.921   1.924
  1.925   1.928   1.929   1.931   1.932   1.935   1.937   1.939
  1.942   1.943   1.945   1.946   1.948   1.952   1.952   1.954
  1.957   1.958   1.961   1.964   1.965   1.967   1.968   1.972
  1.972   1.973   1.977   1.980   1.981   1.982   1.983   1.985
  1.988   1.989   1.991   1.992   1.993   1.995   1.996   1.997
  1.998   2.000   2.001   2.003   2.003   2.005   2.005   2.006
  2.010   2.010   2.013   2.014   2.016   2.017   2.019   2.019
  2.021   2.022   2.022   2.024   2.024   2.025   2.026   2.028
  2.029   2.030   2.031   2.031   2.034   2.034   2.038   2.038
  2.039   2.039   2.041   2.042   2.043   2.044   2.045   2.047
  2.047   2.049   2.050   2.052   2.053   2.055   2.056   2.057
  2.058   2.060   2.061   2.062   2.064   2.065   2.066   2.069
  2.070   2.071   2.072   2.072   2.073   2.075   2.075   2.076
  2.078   2.081   2.082   2.084   2.085   2.086   2.089   2.090
  2.092   2.093   2.095   2.097   2.098   2.101   2.102   2.105
  2.109   2.110   2.111   2.113   2.117   2.119   2.120   2.121
  2.123   2.126   2.131   2.133   2.136   2.141   2.142   2.144
  2.147   2.148   2.154   2.156   2.157   2.162   2.167   2.175
  2.179   2.186   2.189   2.194   2.196   2.197   2.200   2.207
  2.208   2.208   2.210   2.211   2.220   2.222   2.224   2.225
  2.226   2.231   2.234   2.235   2.238   2.241   2.245   2.247
  2.248   2.252   2.254   2.255   2.257   2.261   2.264   2.264
  2.267   2.272   2.274   2.275   2.277   2.278   2.280   2.283
  2.284   2.286   2.286   2.288   2.292   2.293   2.296   2.297
  2.301   2.303   2.304   2.307   2.309   2.310   2.313   2.314
  2.317   2.320   2.324   2.328   2.330   2.333   2.335   2.337
  2.338   2.340   2.342   2.344   2.347   2.348   2.350   2.352
  2.356   2.358   2.359   2.361   2.364   2.365   2.367   2.368
  2.370   2.372   2.372   2.373   2.375   2.378   2.378   2.381
  2.383   2.384   2.386   2.388   2.389   2.391   2.393   2.394
  2.396   2.399   2.399   2.401   2.404   2.406   2.406   2.411
  2.413   2.415   2.416   2.418   2.418   2.420   2.421   2.423
  2.429   2.430   2.433   2.433   2.437   2.440   2.441   2.443
  2.443   2.448   2.451   2.451   2.454   2.455   2.456   2.458
  2.465   2.465   2.467   2.469   2.471   2.473   2.475   2.477
  2.477   2.479   2.479   2.480   2.485   2.491   2.491   2.494
  2.495   2.498   2.501   2.503   2.504   2.506   2.507   2.509
  2.511   2.512   2.513   2.514   2.515   2.517   2.519   2.524
  2.527   2.528   2.532   2.534   2.535   2.536   2.537   2.540
  2.541   2.543   2.547   2.550   2.552   2.554   2.561   2.563
  2.565   2.571   2.574   2.575   2.579   2.582   2.584   2.586
  2.590   2.591   2.592   2.595   2.596   2.597   2.602   2.603
  2.604   2.607   2.608   2.611   2.613   2.614   2.615   2.615
  2.619   2.622   2.625   2.625   2.626   2.629   2.631   2.633
  2.633   2.635   2.636   2.638   2.640   2.642   2.644   2.646
  2.648   2.649   2.652   2.653   2.654   2.658   2.658   2.659
  2.662   2.662   2.663   2.667   2.667   2.670   2.672   2.673
  2.675   2.675   2.677   2.679   2.682   2.683   2.685   2.687
  2.689   2.691   2.696   2.697   2.699   2.700   2.703   2.705
  2.707   2.709   2.710   2.713   2.715   2.720   2.723   2.727
  2.728   2.730   2.731   2.734   2.736   2.738   2.738   2.743
  2.744   2.745   2.748   2.752   2.753   2.755   2.757   2.758
  2.760   2.764   2.766   2.767   2.771   2.772   2.773   2.777
  2.778   2.782   2.782   2.785   2.786   2.790   2.792   2.797
  2.800   2.802   2.804   2.806   2.810   2.814   2.816   2.818
  2.821   2.821   2.824   2.825   2.829   2.833   2.835   2.839
  2.840   2.842   2.845   2.848   2.849   2.852   2.854   2.854
  2.858   2.859   2.861   2.863   2.868   2.869   2.869   2.874
  2.875   2.877   2.879   2.883   2.884   2.886   2.888   2.891
  2.894   2.894   2.896   2.898   2.900   2.902   2.903   2.905
  2.906   2.908   2.909   2.912   2.914   2.914   2.917   2.919
  2.922   2.922   2.924   2.925   2.929   2.931   2.931   2.934
  2.935   2.937   2.938   2.940   2.941   2.945   2.951   2.955
  2.957   2.960   2.964   2.968   2.968   2.974   2.977   2.979
  2.980   2.983   2.985   2.987   2.993   2.995   2.997   2.998
  3.001   3.006   3.007   3.009   3.011   3.016   3.019   3.020
  3.023   3.026   3.028   3.029   3.035   3.039   3.041   3.042
  3.045   3.048   3.050   3.052   3.059   3.063   3.065   3.068
  3.069   3.073   3.078   3.080   3.084   3.086   3.098   3.099
  3.106   3.118   3.120   3.125   3.132   3.134   3.138   3.149
  3.151   3.158   3.163   3.166   3.170   3.173   3.178   3.185
  3.186   3.188   3.202   3.209   3.219   3.227   3.234   3.237
  3.246   3.248   3.256   3.259   3.270   3.272   3.276   3.282
  3.292   3.294   3.303   3.313   3.321   3.322   3.330   3.331
  3.338   3.341   3.347   3.347   3.355   3.374   3.375   3.388
  3.396   3.405   3.409   3.423   3.428   3.430   3.442   3.449
  3.455   3.455   3.468   3.469   3.472   3.474   3.480   3.489
  3.492   3.497   3.503   3.506   3.507   3.520   3.529   3.536
  3.553   3.559   3.561   3.563   3.566   3.569   3.577   3.589
  3.599   3.613   3.677   3.685   3.879   3.884   3.988   4.032
  4.079   4.081   4.084   4.088   4.091   4.095   4.098   4.101
  4.101   4.107   4.113   4.116   4.120   4.122   4.124   4.128
  4.132   4.135   4.142   4.143   4.145   4.151   4.154   4.156
  4.157   4.160   4.166   4.172   4.174   4.181   4.181   4.182
  4.186   4.189   4.209   4.209   4.214   4.223   4.236   4.237
  4.242   4.245   4.248   4.254   4.255   4.261   4.265   4.266
  4.273   4.275   4.279   4.286   4.289   4.291   4.293   4.298
  4.305   4.311   4.318   4.334   4.373   4.375   4.389   4.393
  4.394   4.400   4.404   4.406   4.410   4.413   4.414   4.417
  4.422   4.425   4.431   4.438   4.441   4.455   4.461   4.468
  4.472   4.478   4.501   4.526   4.533   4.534   4.549   4.555
  4.569   4.579   4.606   4.615   4.621   4.631   4.636   4.641
  4.649   4.660   4.675   4.693   4.694   4.695   4.697   4.699
  4.703   4.706   4.711   4.722   4.755   4.756   4.810   4.812
  4.851   4.860   4.862   4.867   4.867   4.886   4.888   4.901
  4.917   4.926   4.953   4.959   4.963   4.971   4.976   4.979
  4.986   4.992   4.998   5.012   5.149   5.160   5.170   5.182
  5.202   5.205   5.216   5.222   5.287   5.318   5.333   5.348
  5.348   5.377
 --------------------------------------------------------------
 
          Ground-State Mulliken Net Atomic Charges

     Atom                 Charge (a.u.)
  ----------------------------------------
      1 O                    -0.502636
      2 C                    -0.081328
      3 H                     0.125433
      4 H                     0.125554
      5 H                     0.133372
      6 O                    -0.480898
      7 C                     0.593432
      8 C                    -0.260347
      9 H                     0.141488
     10 H                     0.144714
     11 C                    -0.185119
     12 H                     0.113112
     13 H                     0.141058
     14 C                    -0.194403
     15 H                     0.110636
     16 H                     0.101175
     17 C                     0.005287
     18 C                     0.094990
     19 C                    -0.085250
     20 H                     0.085336
     21 C                    -0.094650
     22 H                     0.087453
     23 C                    -0.071517
     24 H                     0.091432
     25 C                    -0.107025
     26 H                     0.081548
     27 C                    -0.106851
     28 H                     0.102530
     29 C                     0.004213
     30 C                     0.010811
     31 C                     0.028041
     32 C                     0.050818
     33 C                    -0.000901
     34 C                    -0.001130
     35 C                     0.004147
     36 C                     0.005220
     37 C                    -0.003113
     38 C                    -0.022520
     39 C                    -0.073667
     40 C                     0.008626
     41 C                    -0.017316
     42 C                    -0.007322
     43 C                    -0.004534
     44 C                    -0.012544
     45 C                    -0.076324
     46 C                     0.011805
     47 C                    -0.010905
     48 C                    -0.001351
     49 C                     0.004607
     50 C                     0.012568
     51 C                     0.006017
     52 C                    -0.005633
     53 C                     0.040597
     54 C                    -0.004638
     55 C                     0.014559
     56 C                    -0.014419
     57 C                    -0.003881
     58 C                    -0.026825
     59 C                    -0.029321
     60 C                     0.026962
     61 C                    -0.012020
     62 C                    -0.033231
     63 C                     0.005076
     64 C                     0.019610
     65 C                    -0.041338
     66 C                     0.002696
     67 C                     0.004536
     68 C                    -0.011998
     69 C                    -0.002995
     70 C                    -0.002048
     71 C                     0.014437
     72 C                     0.033419
     73 C                     0.008647
     74 C                     0.026599
     75 C                    -0.000504
     76 C                    -0.016093
     77 C                    -0.019665
     78 C                    -0.009586
     79 C                    -0.028003
     80 C                     0.014933
     81 C                    -0.009325
     82 C                    -0.028010
     83 C                     0.024544
     84 C                    -0.003061
     85 C                     0.010127
     86 C                     0.025642
     87 C                    -0.004784
     88 C                    -0.004758
     89 O                    -0.481229
     90 C                    -0.087718
     91 H                     0.141410
     92 H                     0.126580
     93 H                     0.131402
     94 O                    -0.514020
     95 C                     0.638232
     96 C                    -0.272305
     97 H                     0.143229
     98 H                     0.141043
     99 C                    -0.186041
    100 H                     0.134345
    101 H                     0.099043
    102 C                    -0.194793
    103 H                     0.106562
    104 H                     0.105919
    105 C                     0.021630
    106 C                     0.066366
    107 C                    -0.101452
    108 H                     0.135480
    109 C                    -0.100811
    110 H                     0.093931
    111 C                    -0.082750
    112 H                     0.092015
    113 C                    -0.098426
    114 H                     0.086615
    115 C                    -0.093045
    116 H                     0.092235
    117 C                    -0.012610
    118 C                    -0.005914
    119 C                    -0.006516
    120 C                    -0.049246
    121 C                    -0.013060
    122 C                     0.005025
    123 C                    -0.029129
    124 C                     0.012967
    125 C                    -0.017489
    126 C                     0.051176
    127 C                    -0.075703
    128 C                     0.003940
    129 C                    -0.018531
    130 C                    -0.011683
    131 C                     0.010036
    132 C                     0.008969
    133 C                    -0.061223
    134 C                    -0.020632
    135 C                    -0.005945
    136 C                    -0.005859
    137 C                    -0.009221
    138 C                     0.009014
    139 C                     0.004424
    140 C                     0.023784
    141 C                     0.036709
    142 C                    -0.028944
    143 C                     0.006622
    144 C                    -0.008496
    145 C                     0.019493
    146 C                    -0.013647
    147 C                    -0.004656
    148 C                     0.005300
    149 C                    -0.010177
    150 C                     0.014367
    151 C                     0.007265
    152 C                    -0.010813
    153 C                     0.010742
    154 C                     0.005864
    155 C                    -0.017826
    156 C                    -0.009261
    157 C                     0.014439
    158 C                     0.018597
    159 C                     0.022581
    160 C                    -0.007359
    161 C                    -0.025400
    162 C                     0.000059
    163 C                     0.047207
    164 C                     0.017615
    165 C                    -0.017261
    166 C                    -0.009099
    167 C                    -0.045742
    168 C                     0.017136
    169 C                     0.041756
    170 C                    -0.011743
    171 C                     0.000601
    172 C                     0.017761
    173 C                     0.012843
    174 C                     0.006209
    175 C                    -0.013577
    176 C                    -0.003208
  ----------------------------------------
  Sum of atomic charges =     0.000000

 -----------------------------------------------------------------
                    Cartesian Multipole Moments
 -----------------------------------------------------------------
    Charge (ESU x 10^10)
                 0.0000
    Dipole Moment (Debye)
         X      -2.0879      Y       1.7288      Z      -2.1817
       Tot       3.4796
    Quadrupole Moments (Debye-Ang)
        XX    -793.7531     XY     -28.9227     YY    -791.7653
        XZ       5.3713     YZ       9.2760     ZZ    -793.0785
    Octopole Moments (Debye-Ang^2)
       XXX    -284.9936    XXY     -53.2336    XYY    -140.2978
       YYY      25.3325    XXZ     -71.0229    XYZ     -18.4189
       YYZ     -50.4374    XZZ    -158.5837    YZZ      -3.3318
       ZZZ     -85.4025
    Hexadecapole Moments (Debye-Ang^3)
      XXXX -146887.9128   XXXY   -2458.2515   XXYY  -30564.6187
      XYYY   -1923.4790   YYYY  -42637.7887   XXXZ     742.2563
      XXYZ     519.1910   XYYZ      27.7444   YYYZ     618.4876
      XXZZ  -27688.4682   XYZZ    -839.7278   YYZZ  -10790.2263
      XZZZ     544.0673   YZZZ     265.6072   ZZZZ  -23234.9109
 -----------------------------------------------------------------
Archival summary:
1\1\mn251\SP\ProcedureUnspecified\6-31G**\428\afmv_a\SatOct1306:35:562018SatOct1306:35:562018\0\\#,ProcedureUnspecified,6-31G**,\\0,1\C\C,1,1.36991\C,2,1.37903,1,104.361\C,3,1.37605,2,120.991,1,136.556,0\C,4,1.38655,3,122.31,2,-132.304,0\C,5,1.39875,4,112.341,3,146.074,0\C,6,1.37936,5,117.335,4,-147.161,0\C,7,1.38414,6,122.315,5,-0.229481,0\C,6,1.39676,5,106.155,4,-8.62824,0\C,9,1.38913,6,120.817,5,-140.701,0\C,10,1.39403,9,119.152,6,139.05,0\C,1,1.39966,2,110.864,3,2.8427,0\C,12,1.31763,1,108.21,2,-2.64018,0\C,12,1.39005,1,120.301,2,-148.293,0\C,13,1.39385,12,118.788,1,-142.115,0\C,15,1.39797,13,121.485,12,136.812,0\C,16,1.39811,15,110.284,13,-145.284,0\C,8,1.40227,7,112.567,6,142.162,0\C,18,1.39239,8,123.984,7,-149.662,0\C,19,1.39615,18,117.18,8,132.106,0\C,20,1.3907,19,123.321,18,10.1636,0\C,18,1.39655,8,104.933,7,-5.41639,0\C,22,1.38191,18,121.008,8,-146.988,0\C,22,1.39669,18,108.119,8,5.36818,0\C,20,1.39831,19,107.856,18,-136.004,0\C,14,1.4055,12,120.699,1,8.2032,0\C,26,1.36151,14,112.935,12,143.305,0\C,27,1.352,26,105.547,14,-5.15864,0\C,11,1.40902,10,117.001,9,3.489,0\C,29,1.36982,11,124.594,10,-3.163,0\C,30,1.36273,29,109.693,11,-141.264,0\C,26,1.40906,14,120.253,12,-17.1266,0\C,32,1.39848,26,114.307,14,146.484,0\C,33,1.39299,32,124.819,26,7.32469,0\C,34,1.3855,33,121.782,32,-136.856,0\C,35,1.40122,34,109.193,33,142.702,0\C,33,1.40593,32,105.119,26,-136.797,0\C,37,1.37403,33,111.479,32,4.29061,0\C,10,1.40954,9,119.983,6,5.95271,0\C,23,1.40979,22,116.53,18,139.962,0\C,40,1.38121,23,107.622,22,-141.573,0\C,40,1.38182,23,123.104,22,9.09674,0\C,42,1.38406,40,120.778,23,-136.889,0\C,41,1.40216,40,109.826,23,3.88323,0\C,27,1.41287,26,121.119,14,-152.656,0\C,45,1.40813,27,118.972,26,132.853,0\C,30,1.41308,29,118.817,11,4.34048,0\C,28,1.41452,27,110.99,26,2.62044,0\C,48,1.40681,28,122.719,27,-145.699,0\C,32,1.41529,26,115.678,14,17.1117,0\C,17,1.42091,16,111.274,15,-7.64019,0\C,43,1.421,42,118.167,40,-6.00286,0\C,52,1.38719,43,120.997,42,2.12741,0\C,52,1.3936,43,120.763,42,143.3,0\C,53,1.39361,52,110.176,43,145.795,0\C,55,1.39168,53,105.731,52,-3.7196,0\C,25,1.42459,20,111.066,19,0.654564,0\C,38,1.42573,37,123.015,33,140.202,0\C,58,1.36067,38,121.448,37,1.68725,0\C,19,1.47116,18,117.308,8,-5.68015,0\C,51,1.5225,17,123.806,16,-146.323,0\C,61,1.49149,51,125.793,17,-0.329536,0\C,62,1.40527,61,115.718,51,72.1033,0\H,63,1.08673,62,121.82,61,5.32473,0\C,63,1.40258,62,117.343,61,-172.764,0\H,65,1.085,63,109.768,62,-179.51,0\C,62,1.41273,61,122.715,51,-107.13,0\H,67,1.08512,62,116.329,61,-10.6456,0\C,67,1.38471,62,118.782,61,176.418,0\H,69,1.08633,67,116.842,62,170.052,0\C,69,1.38554,67,121.537,62,-5.31268,0\H,71,1.08604,69,119.194,67,177.769,0\C,61,1.59865,51,112.183,17,145.346,0\H,73,1.09681,61,113.807,51,17.9203,0\H,73,1.09697,61,107.788,51,-94.3201,0\C,73,1.61659,61,117.218,51,149.363,0\H,76,1.09726,73,107.804,61,144.875,0\H,76,1.09733,73,109.219,61,26.0098,0\C,76,1.54973,73,116.634,61,-91.1508,0\H,79,1.09652,76,105.763,73,-25.913,0\H,79,1.09718,76,116.963,73,-134.796,0\C,79,1.4619,76,118.694,73,80.695,0\O,82,1.25077,79,124.693,76,15.0421,0\O,82,1.36334,79,111.39,76,-162.589,0\C,84,1.47796,82,121.976,79,-169.094,0\H,85,1.09679,84,116.309,82,-48.4845,0\H,85,1.09691,84,108.304,82,-168.252,0\H,85,1.09749,84,108.451,82,75.1919,0\H,47,3.05724,30,92.5041,29,89.7095,0\C,89,1.09683,47,143.583,30,125.762,0\H,90,1.09647,89,109.618,47,77.9284,0\H,90,1.09747,89,104.117,47,-159.573,0\O,90,1.46736,89,99.3689,47,-41.8787,0\C,93,1.42552,90,116.831,89,-58.7588,0\O,94,1.24657,93,121.301,90,-9.05134,0\C,94,1.47631,93,113.368,90,176.917,0\H,96,1.09682,94,104.439,93,65.3375,0\H,96,1.09751,94,96.7897,93,-50.6435,0\C,96,1.56914,94,114.933,93,-168.712,0\H,99,1.09694,96,108.18,94,87.4309,0\H,99,1.0971,96,106.047,94,-28.8392,0\C,99,1.55053,96,113.038,94,-154.208,0\H,102,1.09672,99,106.394,96,-61.0064,0\H,102,1.09794,99,110.494,96,50.4139,0\C,102,1.60235,99,115.154,96,-177.854,0\C,105,1.47191,102,106.185,99,-86.9155,0\C,106,1.37309,105,124.019,102,108.414,0\H,107,1.08537,106,122.16,105,2.60929,0\C,106,1.40583,105,114.431,102,-77.3438,0\H,109,1.08653,106,121.165,105,2.34995,0\C,109,1.37326,106,122.579,105,-172.163,0\H,111,1.08599,109,119.74,106,176.27,0\C,111,1.39788,109,118.963,106,3.32249,0\H,113,1.08627,111,125.035,109,-178.125,0\C,113,1.38116,111,116.746,109,-9.961,0\H,115,1.0857,113,119.314,111,-175.383,0\C,105,1.51063,102,120.962,99,61.6864,0\C,117,1.46158,105,61.8302,102,115.529,0\C,118,1.45579,117,123.976,105,116.407,0\C,119,1.41579,118,118.44,117,-2.99311,0\C,120,1.39709,119,119.855,118,136.714,0\C,120,1.40766,119,121.34,118,2.49155,0\C,122,1.39112,120,109.681,119,146.682,0\C,123,1.3907,122,108.704,120,-3.20705,0\C,124,1.3835,123,122.12,122,-141.555,0\C,125,1.38974,124,123.411,123,0.705386,0\C,126,1.36931,125,111.57,124,144.239,0\C,123,1.39544,122,122.723,120,-143.856,0\C,128,1.3913,123,119.599,122,-0.33837,0\C,126,1.39762,125,114.486,124,-0.890376,0\C,129,1.39809,128,111.493,123,137.089,0\C,131,1.38595,129,107.032,128,4.00092,0\C,132,1.39594,131,121.917,129,-150.317,0\C,133,1.39612,132,118.742,131,-0.780836,0\C,127,1.40592,126,107.058,125,1.69062,0\C,135,1.38737,127,107.606,126,-3.34448,0\C,136,1.36747,135,122.142,127,-140.902,0\C,137,1.3985,136,121.333,135,0.470799,0\C,135,1.40414,127,115.928,126,-138.061,0\C,138,1.40823,137,117.409,136,3.8225,0\C,129,1.41153,128,120.838,123,-1.56461,0\C,139,1.41456,135,123.86,127,-5.04522,0\C,142,1.4129,139,119.864,135,4.18092,0\C,143,1.39581,142,122.322,139,137.131,0\C,143,1.41065,142,116.437,139,1.07404,0\C,137,1.41534,136,124.024,135,141.211,0\C,146,1.39709,137,113.135,136,-143.738,0\C,147,1.38976,146,104.165,137,1.07023,0\C,148,1.37125,147,119.322,146,139.904,0\C,147,1.40639,146,118.983,137,141.573,0\C,150,1.40453,147,119.182,146,-135.915,0\C,151,1.36632,150,108.562,147,142.376,0\C,151,1.39017,150,118.638,147,2.48938,0\C,149,1.4154,148,123.37,147,-140.6,0\C,131,1.4223,129,126.392,128,-149.213,0\C,155,1.35143,131,114.878,129,13.899,0\C,156,1.41817,155,110.417,131,133.421,0\C,157,1.35609,156,104.643,155,0.851876,0\C,157,1.36778,156,123.26,155,-151.703,0\C,159,1.38457,157,116.197,156,140.08,0\C,160,1.35731,159,123.07,157,5.7915,0\C,158,1.38818,157,112.161,156,-1.87396,0\C,158,1.4124,157,116.692,156,-146.689,0\C,163,1.40962,158,117.62,157,136.064,0\C,164,1.35857,163,107.036,158,-139.536,0\C,165,1.4117,164,123.415,163,148.879,0\C,161,1.41464,160,122.034,159,-137.529,0\C,167,1.41283,161,120.188,160,-3.76422,0\C,166,1.41525,165,119.528,164,-137.198,0\C,168,1.41536,167,120.302,161,0.463431,0\C,159,1.41702,157,119.77,156,9.39852,0\C,171,1.37253,159,109.573,157,134.355,0\C,172,1.39833,171,108.057,159,0.931953,0\C,171,1.40131,159,119.065,157,-13.884,0\C,156,1.42126,155,123.554,131,-13.2017,0\C,141,1.44418,129,120.341,128,1.43622,0\\\@

 Total job time:  875.36s(wall), 8358.53s(cpu) 
 Sat Oct 13 06:35:56 2018

        *************************************************************
        *                                                           *
        *  Thank you very much for using Q-Chem.  Have a nice day.  *
        *                                                           *
        *************************************************************


