
Running Job 1 of 1 ./8/26.qcin
qchem ./8/26.qcin_37195.0 /tmpu/cab_g/afmv_a/scratch_qchem/qchem37195/ 1
/tmpu/appuserlic/qchem4.4/serial-multicore/exe/qcprog.exe_s ./8/26.qcin_37195.0 /tmpu/cab_g/afmv_a/scratch_qchem/qchem37195/
Check license passed

                  Welcome to Q-Chem
     A Quantum Leap Into The Future Of Chemistry


 Q-Chem 4.4, Q-Chem, Inc., Pleasanton, CA (2016)

 Y. Shao,  Z. Gan,  E. Epifanovsky,  A. T. B. Gilbert,  M. Wormit,  
 J. Kussmann,  A. W. Lange,  A. Behn,  J. Deng,  X. Feng,  D. Ghosh,  
 M. Goldey,  P. R. Horn,  L. D. Jacobson,  I. Kaliman,  F. Rob,  
 R. Z. Khaliullin,  T. Kus,  A. Landau,  J. Liu,  E. I. Proynov,  Y. M. Rhee,  
 R. M. Richard,  M. A. Rohrdanz,  R. P. Steele,  E. J. Sundstrom,  
 H. L. Woodcock III,  P. M. Zimmerman,  D. Zuev,  B. Albrecht,  E. Alguire,  
 B. Austin,  S. A. Baeppler,  G. J. O. Beran,  Y. A. Bernard,  E. Berquist,  
 K. Brandhorst,  K. B. Bravaya,  S. T. Brown,  D. Casanova,  C.-M. Chang,  
 Y. Chen,  S. H. Chien,  K. D. Closser,  M. P. Coons,  D. L. Crittenden,  
 S. Dasgupta,  M. Diedenhofen,  R. A. DiStasio Jr.,  H. Do,  A. D. Dutoi,  
 R. G. Edgar,  P.-T. Fang,  S. Fatehi,  Q. Feng,  L. Fusti-Molnar,  
 A. Ghysels,  A. Golubeva-Zadorozhnaya,  J. Gomes,  A. Gunina,  
 M. W. D. Hanson-Heine,  P. H. P. Harbach,  A. W. Hauser,  J. E. Herr,  
 E. G. Hohenstein,  Z. C. Holden,  K. Hui,  T.-C. Jagau,  H. Ji,  B. Kaduk,  
 K. Khistyaev,  Jaehoon Kim,  Jihan Kim,  R. A. King,  P. Klunzinger,  
 K. Koh,  D. Kosenkov,  T. Kowalczyk,  C. M. Krauter,  A. Kunitsa,  
 K. U. Lao,  A. Laurent,  K. V. Lawler,  J. Lee,  D. Lefrancois,  S. Lehtola,  
 S. V. Levchenko,  C. Y. Lin,  Y.-S. Lin,  F. Liu,  E. Livshits,  
 R. C. Lochan,  A. Luenser,  P. Manohar,  S. F. Manzer,  S.-P. Mao,  Y. Mao,  
 N. Mardirossian,  A. V. Marenich,  L. A. Martinez-Martinez,  S. A. Maurer,  
 N. J. Mayhall,  J.-M. Mewes,  A. F. Morrison,  K. Nanda,  T. S. Nguyen-Beck,  
 C. M. Oana,  R. Olivares-Amaya,  D. P. O'Neill,  J. A. Parkhill,  
 T. M. Perrine,  R. Peverati,  P. A. Pieniazek,  F. Plasser,  A. Prociuk,  
 D. R. Rehn,  E. Rosta,  N. J. Russ,  N. Sergueev,  S. M. Sharada,  
 S. Sharma,  D. W. Small,  A. Sodt,  T. Stauch,  T. Stein,  D. Stuck,  
 Y.-C. Su,  A. J. W. Thom,  T. Tsuchimochi,  L. Vogt,  O. Vydrov,  T. Wang,  
 M. A. Watson,  J. Wenzel,  A. White,  C. F. Williams,  V. Vanovschi,  
 K. Yao,  S. Yeganeh,  S. R. Yost,  Z.-Q. You,  I. Y. Zhang,  X. Zhang,  
 Y. Zhao,  B. R. Brooks,  G. K. L. Chan,  D. M. Chipman,  C. J. Cramer,  
 W. A. Goddard III,  M. S. Gordon,  W. J. Hehre,  A. Klamt,  
 H. F. Schaefer III,  M. W. Schmidt,  C. D. Sherrill,  D. G. Truhlar,  
 A. Warshel,  X. Xu,  A. Aspuru-Guzik,  R. Baer,  A. T. Bell,  N. A. Besley,  
 J.-D. Chai,  A. Dreuw,  B. D. Dunietz,  T. R. Furlani,  S. R. Gwaltney,  
 C.-P. Hsu,  Y. Jung,  J. Kong,  D. S. Lambrecht,  W. Liang,  C. Ochsenfeld,  
 V. A. Rassolov,  L. V. Slipchenko,  J. E. Subotnik,  T. Van Voorhis,  
 J. M. Herbert,  A. I. Krylov,  P. M. W. Gill,  M. Head-Gordon

 Contributors to earlier versions of Q-Chem not listed above: 
 R. D. Adamson,  J. Baker,  E. F. C. Byrd,  A. K. Chakraborty,  C.-L. Cheng,  
 H. Dachsel,  R. J. Doerksen,  G. Hawkins,  A. Heyden,  S. Hirata,  
 G. Kedziora,  F. J. Keil,  C. Kelley,  P. P. Korambath,  W. Kurlancheek,  
 A. M. Lee,  M. S. Lee,  D. Liotard,  I. Lotan,  P. E. Maslen,  N. Nair,  
 D. Neuhauser,  R. Olson,  B. Peters,  J. Ritchie,  N. E. Schultz,  
 N. Shenvi,  A. C. Simmonett,  K. S. Thanthiriwatte,  Q. Wu,  W. Zhang

 Please cite Q-Chem as follows:
 Y. Shao et al., Mol. Phys. 113, 184-215 (2015)
 DOI: 10.1080/00268976.2014.952696

 Q-Chem 4.4.2 for Intel X86 Linux

 Parts of Q-Chem use Armadillo 5.200.1 (Boston Tea Smuggler).
 http://arma.sourceforge.net/

 Q-Chem begins on Sat Oct 13 06:50:42 2018  

Host: 
0

     Scratch files written to /tmpu/cab_g/afmv_a/scratch_qchem/qchem37195//
 Dec716 11556_ 22328  22283 4050   
Processing $rem in /tmpu/appuserlic/qchem4.4/serial-multicore/config/preferences.
 MEM_TOTAL  2000 
FILE_GEOM_ORG=        593

Checking the input file for inconsistencies... 	...done.

--------------------------------------------------------------
User input:
--------------------------------------------------------------
$comment
SP
$end

$rem
MEM_STATIC 5000
MEM_TOTAL 20000
JOBTYPE SP
EXCHANGE B3LYP
BASIS 6-31g(d,p)
$end

$molecule
0 1
O         -12.846000      2.577000     -3.105000
C         -11.464000      2.249000     -3.363000
H         -11.378000      1.611000     -4.252000
H         -11.020000      1.831000     -2.452000
H         -10.830000      3.131000     -3.518000
O         -13.175000      0.406000     -2.559000
C         -13.584000      1.561000     -2.685000
C         -14.962000      1.991000     -2.626000
H         -15.518000      1.225000     -2.071000
H         -15.250000      2.175000     -3.670000
C         -15.187000      3.409000     -2.019000
H         -14.628000      3.491000     -1.080000
H         -14.836000      4.256000     -2.622000
C         -16.684000      3.630000     -1.679000
H         -17.221000      3.748000     -2.629000
H         -17.162000      2.729000     -1.275000
C         -16.858000      4.828000     -0.734000
C         -16.418000      4.553000      0.715000
C         -17.284000      3.885000      1.562000
H         -18.246000      3.492000      1.246000
C         -17.009000      3.603000      2.899000
H         -17.702000      3.106000      3.572000
C         -15.792000      4.019000      3.415000
H         -15.594000      3.889000      4.475000
C         -14.884000      4.706000      2.580000
H         -13.885000      4.962000      2.920000
C         -15.147000      4.946000      1.218000
H         -14.427000      5.457000      0.586000
C         -20.430000      8.822000      0.353000
C         -18.351000      9.942000      0.759000
C         -18.475000     12.619000     -2.984000
C         -20.538000      6.676000     -4.205000
C         -16.384000     10.439000     -4.796000
C         -19.133000      8.775000      0.853000
C         -19.010000      8.278000     -5.974000
C         -20.205000     11.983000     -1.466000
C         -15.529000      8.263000     -1.516000
C         -19.277000      6.246000     -4.560000
C         -16.717000      6.217000     -1.359000
C         -15.541000      7.686000     -2.773000
C         -17.192000      7.025000     -4.956000
C         -18.236000      9.394000     -6.108000
C         -17.092000      8.138000      0.287000
C         -18.459000     11.562000     -4.986000
C         -18.061000      5.686000     -1.033000
C         -19.018000      5.461000     -2.215000
C         -17.195000     11.530000     -4.477000
C         -21.856000      9.855000     -3.706000
C         -20.613000     11.801000     -3.835000
C         -20.975000     11.554000     -2.515000
C         -20.187000     11.132000     -0.264000
C         -20.244000      5.977000     -1.931000
C         -16.209000      7.437000     -0.609000
C         -18.896000     11.107000      0.205000
C         -18.453000      7.070000     -5.415000
C         -17.078000      9.553000      0.425000
C         -15.570000      8.517000     -3.925000
C         -21.828000      7.630000     -2.605000
C         -18.910000     12.412000     -1.675000
C         -16.288000      6.500000     -2.696000
C         -21.739000      9.598000     -1.251000
C         -16.374000      8.161000     -5.018000
C         -15.574000      9.699000     -1.439000
C         -20.367000     10.073000     -5.546000
C         -20.326000      8.632000     -5.674000
C         -15.500000     10.553000     -2.525000
C         -21.041000      6.498000     -2.948000
C         -18.480000      5.683000     -3.508000
C         -21.798000      8.424000     -3.765000
C         -18.867000      6.558000     -0.157000
C         -16.745000     11.540000     -0.894000
C         -17.234000      6.261000     -3.758000
C         -15.548000      9.934000     -3.806000
C         -21.792000      8.229000     -1.375000
C         -17.183000     12.150000     -3.273000
C         -20.952000      9.972000     -0.205000
C         -19.276000     12.262000     -4.078000
C         -16.324000     10.344000     -0.441000
C         -16.355000     11.643000     -2.216000
C         -18.340000      7.662000      0.611000
C         -20.131000      6.628000     -0.647000
C         -21.122000     10.739000     -4.532000
C         -18.088000     11.929000     -0.563000
C         -16.901000      9.308000     -5.566000
C         -21.021000      7.834000     -4.754000
C         -19.033000     10.509000     -5.786000
C         -20.971000      7.690000     -0.341000
C         -21.814000     10.373000     -2.403000
O          -9.263000     13.310000      9.667000
C         -10.546000     14.004000      9.905000
H         -11.129000     14.267000      9.014000
H         -10.347000     14.911000     10.490000
H         -11.184000     13.350000     10.512000
O          -8.610000     14.629000      7.890000
C          -8.356000     13.762000      8.755000
C          -7.077000     13.066000      8.885000
H          -7.489000     12.050000      8.866000
H          -6.658000     13.060000      9.899000
C          -6.070000     13.134000      7.709000
H          -6.153000     14.169000      7.354000
H          -5.053000     12.955000      8.080000
C          -6.330000     12.125000      6.473000
H          -5.324000     11.933000      6.080000
H          -6.624000     11.133000      6.837000
C          -7.231000     12.663000      5.267000
C          -6.665000     13.866000      4.591000
C          -7.219000     15.157000      4.740000
H          -7.973000     15.271000      5.512000
C          -6.674000     16.204000      4.016000
H          -7.008000     17.205000      4.274000
C          -5.678000     15.994000      3.076000
H          -5.252000     16.847000      2.556000
C          -5.080000     14.710000      3.001000
H          -4.212000     14.401000      2.428000
C          -5.545000     13.636000      3.774000
H          -5.071000     12.660000      3.713000
C         -12.319000     13.676000      3.634000
C         -11.189000     12.735000      1.668000
C         -13.325000      8.781000      1.528000
C         -11.827000     10.525000      7.593000
C         -10.764000      6.960000      3.078000
C         -11.192000     13.453000      2.866000
C         -11.759000      7.860000      6.516000
C         -14.201000     11.041000      2.036000
C          -8.303000     10.198000      2.714000
C         -10.611000      9.859000      7.321000
C          -8.011000     11.545000      4.589000
C          -8.202000      9.291000      3.773000
C          -9.427000      8.374000      6.012000
C         -11.785000      7.138000      5.299000
C          -9.248000     12.406000      2.641000
C         -13.202000      7.438000      3.316000
C          -8.776000     12.516000      5.457000
C          -9.553000     11.902000      6.637000
C         -12.034000      7.232000      2.490000
C         -14.724000     10.473000      5.499000
C         -14.774000      9.222000      3.569000
C         -14.825000     10.571000      3.223000
C         -13.595000     12.285000      2.065000
C         -10.819000     12.554000      6.677000
C          -8.294000     11.510000      3.197000
C         -12.422000     12.111000      1.286000
C         -10.598000      8.624000      6.748000
C          -9.967000     12.060000      1.510000
C          -8.857000      8.061000      3.743000
C         -13.259000     12.060000      6.641000
C         -13.487000     10.145000      1.214000
C          -7.997000     10.074000      4.943000
C         -14.144000     12.599000      4.398000
C          -9.474000      7.644000      4.830000
C          -9.197000      9.821000      1.668000
C         -13.761000      8.179000      5.595000
C         -12.955000      8.566000      6.680000
C          -9.758000      8.555000      1.597000
C         -11.963000     11.876000      7.220000
C          -9.497000     10.479000      6.871000
C         -13.885000     10.807000      6.602000
C          -9.795000     13.380000      4.841000
C         -11.156000     10.147000      0.643000
C          -8.733000      9.616000      6.051000
C          -9.657000      7.647000      2.626000
C         -13.375000     12.936000      5.521000
C         -12.140000      8.099000      1.444000
C         -13.490000     12.993000      3.247000
C         -14.035000      8.339000      2.728000
C          -9.962000     10.780000      0.996000
C         -11.006000      8.765000      0.927000
C          -9.934000     13.317000      3.457000
C         -10.967000     13.431000      5.598000
C         -14.632000      9.183000      4.985000
C         -12.369000     10.819000      0.725000
C         -10.656000      7.002000      4.443000
C         -13.051000      9.863000      7.179000
C         -13.082000      7.351000      4.734000
C         -12.227000     13.627000      5.043000
C         -14.790000     11.317000      4.392000
$end

--------------------------------------------------------------
 ----------------------------------------------------------------
             Standard Nuclear Orientation (Angstroms)
    I     Atom           X                Y                Z
 ----------------------------------------------------------------
    1      O       3.9285022996    -6.5221647640     3.1592544963
    2      C       3.2159330581    -7.2667092716     4.1701800882
    3      H       3.9173824429    -7.8140386903     4.8129555296
    4      H       2.4546700516    -7.8889887830     3.6853833837
    5      H       2.5902656913    -6.6358111317     4.8139291723
    6      O       4.4924682486    -8.4997797784     2.2155494242
    7      C       4.5016529955    -7.2681317223     2.2274113889
    8      C       5.3056870218    -6.4112281426     1.3868695757
    9      H       5.5864787987    -6.9952685010     0.5014488634
   10      H       6.1137721207    -6.0485217694     2.0366222669
   11      C       4.6380888405    -5.0600419716     0.9888663097
   12      H       3.6217379359    -5.2537793250     0.6277255110
   13      H       4.5075788857    -4.3274171058     1.7953692283
   14      C       5.4134757591    -4.3850588952    -0.1724359650
   15      H       6.3588499591    -4.0099156526     0.2402723696
   16      H       5.7768399886    -5.1081620783    -0.9131040576
   17      C       4.5641922434    -3.2878340591    -0.8307065544
   18      C       3.4202324637    -3.8230666289    -1.7103133522
   19      C       3.7048780269    -4.2382814903    -2.9987862941
   20      H       4.7087173972    -4.2585361299    -3.4130872331
   21      C       2.7508840270    -4.7150736779    -3.8961617218
   22      H       2.9699933388    -5.0116576647    -4.9180306215
   23      C       1.4326097451    -4.7761277713    -3.4732831158
   24      H       0.6612581941    -5.0596367666    -4.1834545277
   25      C       1.1047013533    -4.3581375913    -2.1650712461
   26      H       0.1021853210    -4.4809594296    -1.7663064019
   27      C       2.0791411086    -3.9225089816    -1.2471889673
   28      H       1.8105698466    -3.6254662496    -0.2379416772
   29      C       5.1584867299     1.5519678819    -3.3037452188
   30      C       3.0801329412     1.8747919493    -2.1558309579
   31      C       4.7050004186     4.7664292938     1.0363459089
   32      C       8.7926199776    -0.0154659571    -0.1846795416
   33      C       5.0528577456     2.1876368357     3.4105509840
   34      C       3.9381109997     1.0311253641    -2.8868229853
   35      C       8.3323176628     1.1393055455     2.3619208502
   36      C       5.1661017108     4.6082791805    -1.3011942811
   37      C       3.0476547823    -0.4352451757     1.1031602434
   38      C       8.2589893457    -0.8067400954     0.8103931123
   39      C       4.4272576857    -1.9745750778    -0.0584198363
   40      C       4.0326597210    -0.8595162356     1.9765910297
   41      C       6.7909631398    -0.7336799994     2.5280785554
   42      C       7.5212562334     1.9413690271     3.1111614852
   43      C       3.0505639552    -0.1950084942    -1.2741661696
   44      C       6.2919867526     3.9494565359     2.4290191975
   45      C       5.3377260367    -2.0551326143    -1.2242375172
   46      C       6.8344185266    -1.8412603840    -0.9453679061
   47      C       5.0845913423     3.4528648519     2.8206746869
   48      C       8.4180322424     3.3622159278    -0.9216429824
   49      C       7.0129361604     4.7868493776     0.2379821872
   50      C       6.5097497985     4.5564349013    -1.0380137588
   51      C       4.6570461754     3.6950820363    -2.3386249716
   52      C       7.3614441446    -0.9745053078    -1.8514405499
   53      C       3.2118783365    -1.0660816932    -0.1387740997
   54      C       3.4537017475     3.1996826734    -1.8983879228
   55      C       7.9604954115    -0.2303927362     2.1017885176
   56      C       2.5119129616     1.1161163165    -1.1633878417
   57      C       4.5240546542     0.0340592807     2.9658128533
   58      C       8.3944039848     1.1650560993    -2.0772988107
   59      C       4.2479889031     4.5988479550    -0.2707929397
   60      C       4.8825586820    -1.7311325415     1.2776698816
   61      C       6.8596151559     2.8606548190    -2.7727333742
   62      C       5.8968890300     0.0660212810     3.2523529152
   63      C       2.5828781926     0.9207275990     1.2271382897
   64      C       8.4619532507     3.2372396709     1.4516873528
   65      C       8.9634396883     1.8825037079     1.3636656322
   66      C       2.9523593258     1.7956630471     2.2331997460
   67      C       8.4076559754    -0.1285063411    -1.4899636443
   68      C       7.2036962721    -1.6953196940     0.4158492925
   69      C       8.8606398065     2.0049870110    -1.0506166679
   70      C       5.0812463316    -1.0473673520    -2.2711488491
   71      C       2.4923502684     2.9893901578     0.3496493081
   72      C       6.2997858154    -1.5448837584     1.4691369624
   73      C       3.9911568499     1.3461124368     3.0964667689
   74      C       7.4026577071     1.6044257294    -2.9117990496
   75      C       4.1197624205     3.9222784025     1.9942873259
   76      C       5.5229859830     2.8554848476    -3.0311066034
   77      C       6.0766565785     4.7965444058     1.3253761135
   78      C       2.2802362422     1.6857749843     0.0879985494
   79      C       3.0218906306     3.0754971740     1.6234489731
   80      C       3.8771860663    -0.2557068355    -2.3705546029
   81      C       6.2647505270    -0.5168192898    -2.6718140126
   82      C       8.1461625371     4.0222204306     0.3002280908
   83      C       3.1120262973     3.7716320353    -0.6840964364
   84      C       6.2595264953     1.3674844270     3.5137525106
   85      C       9.1213118079     1.2817697952     0.1065164127
   86      C       7.5336929728     3.2241956248     2.5312311033
   87      C       6.3342962446     0.7320104649    -3.2740329404
   88      C       7.4010392109     3.7169730202    -1.8204030056
   89      O     -10.0488951844     1.2085131758    -2.8430900594
   90      C      -9.5078793700     2.2654703052    -3.7231539862
   91      H      -8.6125493605     2.7867099368    -3.3631089606
   92      H     -10.3023344093     2.9978708062    -3.9152625408
   93      H      -9.2369189211     1.8091618761    -4.6831394301
   94      O      -9.7964332768     2.3895568544    -0.8770539930
   95      C     -10.2540122838     1.4131906018    -1.5108997101
   96      C     -11.0247750616     0.3225022568    -0.9163573025
   97      H     -10.4042135535    -0.4923685777    -1.3078288056
   98      H     -11.9620996168     0.0859894756    -1.4352767399
   99      C     -11.0136313643     0.1572546792     0.6244924813
  100      H     -11.0526894534     1.1884204682     0.9977358086
  101      H     -11.9128735495    -0.3826775800     0.9466844237
  102      C      -9.7316423695    -0.5918852871     1.2637659188
  103      H     -10.1348946328    -1.0714645573     2.1641771225
  104      H      -9.4448090358    -1.4580354817     0.6550734848
  105      C      -8.4973380456     0.3217253752     1.7081637065
  106      C      -8.8448161801     1.3235511310     2.7570417266
  107      C      -8.9496636625     2.7063160984     2.4872898958
  108      H      -8.9406568447     2.9946369799     1.4412086625
  109      C      -9.2032066552     3.5730253976     3.5370236437
  110      H      -9.4424309054     4.6005295865     3.2779331188
  111      C      -9.2471309734     3.1292045791     4.8488200209
  112      H      -9.4852039818     3.8350171440     5.6391584711
  113      C      -9.2225093295     1.7316942524     5.0901572568
  114      H      -9.3775129537     1.2044473934     6.0256884568
  115      C      -9.0482316068     0.8085983322     4.0486433599
  116      H      -9.0407532001    -0.2597951739     4.2472696162
  117      C      -4.1764853023     3.1131297387    -0.0578757184
  118      C      -3.4371201149     2.0310625256     2.0181798362
  119      C      -0.6031535588    -0.9569905902     0.2136344264
  120      C      -6.0509258123    -0.3653877119    -3.2564590174
  121      C      -2.8304885943    -3.6583862294     0.3503905620
  122      C      -4.4180906861     2.5979994485     1.2014691996
  123      C      -4.5854471781    -2.7924724128    -2.7785361919
  124      C      -1.0097446624     1.4101394902    -0.3900367232
  125      C      -5.3518503634    -1.4051356345     2.6393330222
  126      C      -6.5316968154    -1.3706985412    -2.3878938909
  127      C      -7.1668391441    -0.4069951629     1.5787533105
  128      C      -5.8115800446    -2.3856254921     1.7552406858
  129      C      -6.0772474539    -3.0406232983    -0.8629712425
  130      C      -3.5706589002    -3.3517996049    -1.9658819954
  131      C      -5.3251964970     0.9885388391     2.4314145620
  132      C      -1.4044533650    -2.4198041026    -1.2809615888
  133      C      -7.4781489135     0.6807759310     0.5780883942
  134      C      -7.4843724634     0.2566019471    -0.9028446559
  135      C      -1.6436307664    -2.9273912602     0.0509864011
  136      C      -2.6568697474     0.7387409722    -3.4600082189
  137      C      -1.0082849115    -0.2448633725    -2.1922970799
  138      C      -1.1736256469     1.0695860208    -1.7598583749
  139      C      -1.8450864173     2.3735645673     0.1481354365
  140      C      -6.8168200541     1.2863320971    -1.6263704667
  141      C      -6.0734668682    -0.2201415830     2.4667852953
  142      C      -2.1275671431     1.8901127956     1.4517937598
  143      C      -5.7926351364    -2.4826200450    -2.1211704311
  144      C      -3.9915739480     1.0050266755     2.8015727014
  145      C      -4.9452822390    -3.3195119104     1.1893703212
  146      C      -4.9126017021     1.6378939337    -3.1913908318
  147      C      -0.7148707599     0.4055936534     0.5545441592
  148      C      -6.9423271582    -1.8243711487     1.0991777869
  149      C      -3.0327869200     2.6406318303    -1.9401482111
  150      C      -5.0672773489    -3.6036273805    -0.0914663557
  151      C      -3.9385373256    -1.3671725313     2.8306078507
  152      C      -2.6840210659    -1.7437241390    -3.2711940832
  153      C      -4.0628694975    -1.7465313216    -3.5457830893
  154      C      -3.1015757958    -2.3624369014     2.3495026320
  155      C      -6.1396064598     0.9816614616    -2.8559340282
  156      C      -7.2285187051    -1.1188737480    -1.2570006477
  157      C      -4.0539575845     0.6735784470    -3.7356627505
  158      C      -6.6358614243     1.8864610203     0.5436173788
  159      C      -2.0038301350    -0.3167853590     2.4456703559
  160      C      -6.9806001427    -2.1092633843    -0.2779553195
  161      C      -3.5419825464    -3.3411601337     1.4883123345
  162      C      -4.3939294533     2.5997775164    -2.2743351783
  163      C      -1.1761249712    -1.9839568118     0.9160937777
  164      C      -2.8892552999     2.8966155861    -0.5904726980
  165      C      -0.7231231075    -1.2438129445    -1.2156326041
  166      C      -3.2702033469    -0.1517933667     3.0113650888
  167      C      -1.8589931636    -1.6895669400     2.1176871511
  168      C      -5.6407681398     1.9983876097     1.5110923366
  169      C      -6.3017877719     2.2561065798    -0.7606030608
  170      C      -1.9939702099    -0.4564190879    -3.1974884407
  171      C      -1.4066506903     0.7102927292     1.7258340470
  172      C      -3.7850466099    -3.7779950097    -0.6248866983
  173      C      -4.7156148468    -0.5421166856    -3.7982407957
  174      C      -2.3608621329    -2.6692751704    -2.3084534161
  175      C      -5.1192196469     2.9094582839    -1.0903077473
  176      C      -2.1718523319     1.6527747883    -2.5264980209
 ----------------------------------------------------------------
 Molecular Point Group                 C1    NOp =  1
 Largest Abelian Subgroup              C1    NOp =  1
 Nuclear Repulsion Energy = 34704.1810629182 hartrees
 There are      462 alpha and      462 beta electrons
 Requested basis set is 6-31G(d,p)
 There are 676 shells and 2360 basis functions

 Total QAlloc Memory Limit  20000 MB
 Mega-Array Size      4888 MB
 MEM_STATIC part      5000 MB
 A cutoff of  1.0D-08 yielded  38094 shell pairs
 There are    536328 function pairs
 
 -------------------------------------------------------
 OpenMP Integral Computing Module                       
 Release: version 1.0, May 2013, Q-Chem Inc. Pittsburgh 
 -------------------------------------------------------
 Integral Job Info:
 Integral job number is                      11
 Integral operator is                         1
 short-range coefficients                     0
 long-range coefficients              100000000
 Omega coefficients                           0
 if combine SR and LR in K                    0
 Integral screening is                        0
 Integral computing path is                   2
 max size of driver memory is            800000
 size of driver memory is                593474
 size of scratch memory is              2260544
 max col of scratch BK array               1296
 max len of scratch array in speh3          155
 max len of scratch index in speh4           18
 max int batch size is                      520
 min int batch size is                       52
 fixed nKL is                                52
 max L of basis functions is                  2
 order of int derivative is                   0
 number of shells is                        676
 number of basis is                        2360
 number of cartesian basis is              2360
 number of contracted shell pairs         38094
 number of primitive shell pairs         115109
 maxK2 (contraction) of shell pair           36
 max number of K2 of shell pair               1
 max number of CS2 of shell pair           7339
 max number of PS2 of shell pair          34806
 mem total for path MDJ                 1532744
 -------------------------------------------------------
 Smallest overlap matrix eigenvalue = 2.53E-04

 Scale SEOQF with 1.000000e-02/1.000000e-02/1.000000e-02

 Standard Electronic Orientation quadrupole field applied
 Nucleus-field energy     =     0.0000001171 hartrees
 Guess from superposition of atomic densities
 Warning:  Energy on first SCF cycle will be non-variational
 A restricted hybrid HF-DFT SCF calculation will be
 performed using Pulay DIIS extrapolation
 Exchange:     0.2000 Hartree-Fock + 0.0800 Slater + 0.7200 B88
 Correlation:  0.1900 VWN1RPA + 0.8100 LYP
 Using SG-1 standard quadrature grid
 SCF converges when DIIS error is below 1.0E-05
 using 16 threads for integral computing 
 -------------------------------------------------------
 OpenMP BLAS3 based DFT computing Module                
 Release: version 1.0, May 2013, Q-Chem Inc. Pittsburgh 
 -------------------------------------------------------
 ---------------------------------------
  Cycle       Energy         DIIS Error
 ---------------------------------------
    1   -5859.0083675079      1.84E-02
    2   -5803.0546574038      1.29E-03
    3   -5802.2997138061      1.78E-03
    4   -5803.9240932381      6.45E-04
    5   -5804.1423996726      2.93E-04
    6   -5804.1923372476      1.47E-04
    7   -5804.2071776569      4.61E-05
    8   -5804.2081395443      2.85E-05
    9   -5804.2087190833      8.47E-06 Convergence criterion met
 ---------------------------------------
 SCF time:  CPU 8380.65 s  wall 866.79 s
 SCF   energy in the final basis set = -5804.2087190833
 Total energy in the final basis set = -5804.2087190833
 
 --------------------------------------------------------------
 
                    Orbital Energies (a.u.)
 --------------------------------------------------------------
 
 Alpha MOs
 -- Occupied --
-19.198 -19.195 -19.139 -19.125 -10.325 -10.306 -10.253 -10.243
-10.238 -10.237 -10.237 -10.236 -10.233 -10.233 -10.231 -10.225
-10.225 -10.225 -10.223 -10.222 -10.222 -10.221 -10.221 -10.220
-10.220 -10.220 -10.220 -10.220 -10.220 -10.220 -10.220 -10.219
-10.218 -10.218 -10.218 -10.218 -10.218 -10.218 -10.218 -10.218
-10.217 -10.217 -10.217 -10.217 -10.217 -10.217 -10.217 -10.217
-10.217 -10.216 -10.216 -10.216 -10.216 -10.216 -10.216 -10.215
-10.215 -10.215 -10.215 -10.215 -10.215 -10.214 -10.214 -10.214
-10.214 -10.214 -10.213 -10.213 -10.213 -10.213 -10.213 -10.213
-10.213 -10.213 -10.212 -10.212 -10.212 -10.212 -10.212 -10.212
-10.212 -10.212 -10.212 -10.212 -10.212 -10.212 -10.211 -10.211
-10.211 -10.211 -10.211 -10.211 -10.211 -10.211 -10.211 -10.211
-10.211 -10.210 -10.210 -10.210 -10.210 -10.210 -10.210 -10.209
-10.209 -10.209 -10.209 -10.209 -10.209 -10.208 -10.208 -10.208
-10.208 -10.208 -10.207 -10.207 -10.207 -10.207 -10.206 -10.206
-10.206 -10.206 -10.206 -10.205 -10.205 -10.205 -10.205 -10.205
-10.204 -10.204 -10.204 -10.204 -10.203 -10.203 -10.202 -10.200
-10.198 -10.198 -10.197 -10.197 -10.195 -10.195 -10.194 -10.194
-10.194 -10.193 -10.193 -10.190  -1.106  -1.087  -1.000  -1.000
 -0.984  -0.983  -0.967  -0.965  -0.964  -0.963  -0.962  -0.961
 -0.938  -0.931  -0.929  -0.929  -0.925  -0.925  -0.923  -0.922
 -0.921  -0.920  -0.898  -0.896  -0.893  -0.891  -0.888  -0.885
 -0.874  -0.871  -0.853  -0.851  -0.844  -0.843  -0.841  -0.838
 -0.833  -0.832  -0.821  -0.817  -0.810  -0.805  -0.799  -0.799
 -0.796  -0.796  -0.793  -0.792  -0.791  -0.790  -0.786  -0.783
 -0.773  -0.772  -0.766  -0.766  -0.764  -0.764  -0.763  -0.763
 -0.749  -0.749  -0.744  -0.743  -0.733  -0.732  -0.720  -0.717
 -0.716  -0.714  -0.713  -0.712  -0.712  -0.709  -0.709  -0.708
 -0.707  -0.704  -0.704  -0.703  -0.701  -0.699  -0.675  -0.671
 -0.661  -0.658  -0.656  -0.654  -0.647  -0.645  -0.634  -0.634
 -0.629  -0.626  -0.623  -0.622  -0.622  -0.621  -0.617  -0.616
 -0.616  -0.614  -0.613  -0.612  -0.611  -0.609  -0.606  -0.604
 -0.604  -0.603  -0.602  -0.600  -0.568  -0.566  -0.565  -0.564
 -0.563  -0.560  -0.559  -0.556  -0.555  -0.554  -0.553  -0.550
 -0.537  -0.536  -0.534  -0.532  -0.529  -0.527  -0.526  -0.524
 -0.523  -0.522  -0.520  -0.519  -0.514  -0.513  -0.512  -0.512
 -0.508  -0.507  -0.504  -0.503  -0.494  -0.492  -0.488  -0.485
 -0.484  -0.483  -0.483  -0.480  -0.479  -0.478  -0.477  -0.474
 -0.472  -0.472  -0.470  -0.469  -0.469  -0.468  -0.466  -0.464
 -0.464  -0.463  -0.462  -0.462  -0.460  -0.460  -0.458  -0.457
 -0.455  -0.453  -0.451  -0.450  -0.449  -0.446  -0.446  -0.444
 -0.442  -0.441  -0.439  -0.437  -0.436  -0.436  -0.434  -0.432
 -0.431  -0.429  -0.427  -0.426  -0.426  -0.425  -0.425  -0.423
 -0.422  -0.422  -0.420  -0.420  -0.419  -0.418  -0.417  -0.416
 -0.416  -0.415  -0.414  -0.413  -0.412  -0.411  -0.410  -0.410
 -0.409  -0.408  -0.406  -0.405  -0.402  -0.400  -0.398  -0.396
 -0.396  -0.395  -0.390  -0.389  -0.387  -0.385  -0.381  -0.381
 -0.378  -0.377  -0.373  -0.372  -0.369  -0.368  -0.366  -0.365
 -0.364  -0.363  -0.363  -0.361  -0.361  -0.359  -0.358  -0.357
 -0.356  -0.355  -0.354  -0.354  -0.353  -0.352  -0.350  -0.349
 -0.348  -0.348  -0.347  -0.346  -0.344  -0.343  -0.343  -0.342
 -0.341  -0.340  -0.339  -0.339  -0.338  -0.337  -0.334  -0.332
 -0.332  -0.331  -0.330  -0.328  -0.326  -0.323  -0.321  -0.319
 -0.308  -0.304  -0.303  -0.300  -0.289  -0.285  -0.274  -0.272
 -0.269  -0.268  -0.268  -0.266  -0.265  -0.263  -0.263  -0.262
 -0.262  -0.260  -0.259  -0.257  -0.255  -0.254  -0.252  -0.251
 -0.248  -0.247  -0.244  -0.239  -0.225  -0.220  -0.214  -0.211
 -0.208  -0.206  -0.203  -0.200  -0.199  -0.195
 -- Virtual --
 -0.124  -0.122  -0.121  -0.116  -0.111  -0.109  -0.080  -0.074
 -0.072  -0.071  -0.062  -0.059  -0.056  -0.049  -0.023  -0.021
 -0.020  -0.019  -0.018  -0.016  -0.015  -0.013  -0.011  -0.011
 -0.010  -0.008  -0.006  -0.005  -0.003  -0.002  -0.001   0.006
  0.008   0.011   0.039   0.039   0.041   0.045   0.048   0.049
  0.051   0.052   0.055   0.056   0.061   0.066   0.068   0.069
  0.070   0.073   0.082   0.086   0.088   0.089   0.090   0.093
  0.093   0.098   0.101   0.102   0.102   0.104   0.107   0.108
  0.110   0.111   0.111   0.113   0.116   0.118   0.119   0.121
  0.123   0.123   0.130   0.131   0.132   0.132   0.134   0.139
  0.145   0.145   0.147   0.147   0.152   0.154   0.156   0.159
  0.160   0.162   0.163   0.164   0.166   0.169   0.170   0.171
  0.173   0.174   0.175   0.176   0.178   0.181   0.182   0.182
  0.185   0.187   0.188   0.189   0.191   0.193   0.194   0.194
  0.196   0.199   0.199   0.201   0.202   0.203   0.204   0.209
  0.209   0.211   0.211   0.216   0.218   0.219   0.220   0.220
  0.224   0.226   0.227   0.227   0.229   0.229   0.230   0.231
  0.232   0.233   0.235   0.237   0.239   0.241   0.242   0.242
  0.244   0.245   0.248   0.250   0.252   0.254   0.258   0.263
  0.264   0.267   0.270   0.272   0.277   0.279   0.280   0.281
  0.284   0.286   0.290   0.292   0.293   0.296   0.305   0.307
  0.310   0.311   0.313   0.314   0.315   0.317   0.317   0.318
  0.322   0.322   0.324   0.325   0.328   0.330   0.334   0.336
  0.340   0.341   0.343   0.345   0.347   0.348   0.349   0.350
  0.356   0.360   0.365   0.373   0.373   0.379   0.389   0.391
  0.395   0.396   0.399   0.399   0.402   0.404   0.406   0.409
  0.414   0.416   0.416   0.419   0.420   0.421   0.425   0.425
  0.429   0.432   0.434   0.434   0.435   0.439   0.439   0.442
  0.445   0.449   0.452   0.456   0.457   0.459   0.460   0.462
  0.465   0.465   0.468   0.468   0.470   0.472   0.473   0.476
  0.477   0.479   0.480   0.482   0.483   0.483   0.484   0.486
  0.488   0.489   0.490   0.490   0.491   0.493   0.494   0.496
  0.497   0.497   0.498   0.499   0.501   0.503   0.504   0.504
  0.506   0.506   0.508   0.509   0.510   0.510   0.511   0.512
  0.513   0.513   0.515   0.515   0.516   0.516   0.518   0.520
  0.520   0.521   0.522   0.523   0.524   0.525   0.527   0.527
  0.529   0.529   0.531   0.532   0.533   0.534   0.534   0.534
  0.536   0.536   0.538   0.538   0.539   0.540   0.541   0.542
  0.542   0.543   0.544   0.545   0.545   0.545   0.546   0.547
  0.548   0.549   0.549   0.551   0.551   0.552   0.553   0.554
  0.554   0.555   0.556   0.557   0.557   0.559   0.559   0.560
  0.561   0.561   0.563   0.563   0.564   0.566   0.566   0.566
  0.567   0.567   0.569   0.569   0.570   0.571   0.572   0.574
  0.574   0.576   0.578   0.578   0.579   0.580   0.580   0.581
  0.583   0.583   0.584   0.584   0.585   0.586   0.587   0.587
  0.588   0.589   0.589   0.590   0.591   0.592   0.593   0.594
  0.595   0.596   0.597   0.597   0.598   0.598   0.600   0.602
  0.603   0.604   0.604   0.606   0.607   0.608   0.609   0.610
  0.611   0.612   0.612   0.613   0.615   0.616   0.617   0.619
  0.620   0.621   0.622   0.622   0.625   0.626   0.626   0.628
  0.628   0.629   0.630   0.630   0.632   0.632   0.634   0.634
  0.635   0.637   0.638   0.639   0.640   0.640   0.640   0.641
  0.643   0.644   0.645   0.646   0.648   0.649   0.650   0.651
  0.652   0.654   0.654   0.655   0.656   0.657   0.657   0.659
  0.659   0.660   0.662   0.663   0.664   0.665   0.665   0.667
  0.667   0.668   0.668   0.668   0.670   0.670   0.671   0.672
  0.673   0.673   0.674   0.676   0.676   0.678   0.680   0.681
  0.682   0.683   0.685   0.686   0.687   0.688   0.689   0.690
  0.691   0.692   0.694   0.694   0.696   0.696   0.697   0.699
  0.700   0.701   0.703   0.704   0.704   0.706   0.706   0.707
  0.709   0.709   0.710   0.711   0.714   0.715   0.716   0.717
  0.717   0.718   0.719   0.720   0.723   0.724   0.724   0.725
  0.727   0.727   0.728   0.729   0.730   0.732   0.733   0.734
  0.736   0.738   0.739   0.740   0.741   0.743   0.746   0.746
  0.747   0.751   0.752   0.753   0.755   0.756   0.757   0.758
  0.761   0.763   0.764   0.766   0.767   0.768   0.769   0.771
  0.773   0.774   0.776   0.777   0.778   0.779   0.780   0.781
  0.781   0.782   0.784   0.785   0.787   0.789   0.790   0.791
  0.791   0.792   0.794   0.795   0.796   0.797   0.799   0.800
  0.801   0.802   0.803   0.804   0.805   0.806   0.807   0.808
  0.809   0.810   0.810   0.811   0.812   0.812   0.813   0.813
  0.815   0.816   0.817   0.819   0.820   0.820   0.821   0.821
  0.822   0.823   0.823   0.825   0.825   0.827   0.828   0.828
  0.829   0.830   0.831   0.831   0.835   0.835   0.837   0.837
  0.839   0.840   0.842   0.843   0.844   0.849   0.850   0.852
  0.855   0.855   0.857   0.860   0.863   0.863   0.866   0.868
  0.870   0.872   0.875   0.877   0.880   0.882   0.888   0.890
  0.891   0.894   0.897   0.898   0.901   0.902   0.906   0.910
  0.913   0.919   0.921   0.922   0.923   0.924   0.926   0.928
  0.929   0.930   0.932   0.934   0.938   0.938   0.940   0.941
  0.941   0.943   0.945   0.946   0.947   0.950   0.953   0.953
  0.955   0.956   0.958   0.962   0.966   0.966   0.971   0.974
  0.975   0.978   0.982   0.982   0.985   0.990   0.993   0.994
  0.995   0.998   1.001   1.002   1.003   1.005   1.007   1.008
  1.011   1.014   1.015   1.016   1.016   1.018   1.022   1.022
  1.025   1.025   1.026   1.027   1.032   1.032   1.034   1.034
  1.037   1.037   1.040   1.042   1.042   1.044   1.045   1.047
  1.048   1.053   1.054   1.055   1.057   1.058   1.061   1.061
  1.063   1.064   1.065   1.069   1.070   1.072   1.072   1.075
  1.075   1.078   1.080   1.082   1.083   1.084   1.086   1.088
  1.091   1.092   1.092   1.094   1.095   1.097   1.099   1.100
  1.101   1.104   1.104   1.108   1.109   1.110   1.112   1.114
  1.115   1.117   1.119   1.120   1.123   1.124   1.127   1.129
  1.131   1.134   1.137   1.138   1.142   1.144   1.144   1.149
  1.151   1.153   1.155   1.156   1.158   1.161   1.164   1.166
  1.167   1.168   1.170   1.172   1.173   1.175   1.176   1.178
  1.178   1.180   1.182   1.183   1.184   1.187   1.188   1.189
  1.191   1.192   1.194   1.196   1.197   1.201   1.203   1.204
  1.207   1.210   1.211   1.213   1.215   1.218   1.219   1.221
  1.228   1.231   1.236   1.242   1.243   1.245   1.248   1.250
  1.253   1.254   1.257   1.259   1.261   1.262   1.264   1.265
  1.266   1.270   1.273   1.275   1.277   1.278   1.281   1.282
  1.283   1.285   1.287   1.290   1.293   1.295   1.296   1.298
  1.299   1.306   1.306   1.308   1.312   1.313   1.318   1.321
  1.322   1.327   1.329   1.330   1.333   1.335   1.337   1.339
  1.339   1.342   1.345   1.346   1.347   1.350   1.351   1.353
  1.354   1.356   1.360   1.361   1.361   1.365   1.367   1.370
  1.370   1.373   1.376   1.377   1.381   1.383   1.383   1.389
  1.390   1.393   1.394   1.396   1.397   1.398   1.402   1.403
  1.405   1.409   1.411   1.414   1.418   1.421   1.428   1.430
  1.432   1.437   1.439   1.441   1.443   1.446   1.450   1.451
  1.455   1.456   1.459   1.460   1.461   1.463   1.464   1.467
  1.467   1.469   1.472   1.473   1.476   1.478   1.479   1.483
  1.483   1.484   1.488   1.489   1.491   1.493   1.497   1.500
  1.503   1.506   1.508   1.510   1.511   1.515   1.517   1.520
  1.521   1.526   1.529   1.530   1.531   1.539   1.540   1.543
  1.544   1.547   1.550   1.553   1.555   1.556   1.557   1.560
  1.564   1.568   1.569   1.572   1.573   1.578   1.579   1.581
  1.583   1.584   1.586   1.588   1.592   1.593   1.593   1.594
  1.599   1.601   1.608   1.611   1.616   1.618   1.623   1.624
  1.626   1.631   1.634   1.634   1.638   1.640   1.641   1.646
  1.652   1.653   1.659   1.661   1.665   1.666   1.667   1.672
  1.684   1.684   1.686   1.691   1.693   1.695   1.699   1.704
  1.705   1.706   1.710   1.712   1.716   1.716   1.719   1.720
  1.723   1.724   1.726   1.727   1.729   1.733   1.733   1.736
  1.738   1.739   1.742   1.742   1.745   1.747   1.748   1.751
  1.753   1.755   1.755   1.757   1.758   1.760   1.761   1.762
  1.763   1.765   1.766   1.767   1.770   1.771   1.772   1.773
  1.775   1.776   1.777   1.778   1.780   1.781   1.782   1.784
  1.784   1.786   1.788   1.789   1.790   1.792   1.794   1.795
  1.796   1.797   1.799   1.800   1.802   1.803   1.805   1.806
  1.807   1.808   1.810   1.810   1.812   1.813   1.815   1.817
  1.819   1.820   1.822   1.822   1.823   1.825   1.827   1.829
  1.830   1.833   1.835   1.838   1.839   1.843   1.844   1.846
  1.848   1.848   1.849   1.850   1.851   1.853   1.856   1.858
  1.861   1.863   1.865   1.866   1.869   1.870   1.871   1.873
  1.873   1.876   1.879   1.880   1.880   1.883   1.885   1.886
  1.888   1.890   1.892   1.897   1.898   1.900   1.902   1.903
  1.905   1.908   1.910   1.914   1.917   1.920   1.925   1.927
  1.928   1.928   1.931   1.932   1.937   1.939   1.940   1.941
  1.945   1.946   1.947   1.949   1.950   1.952   1.953   1.954
  1.955   1.957   1.961   1.964   1.966   1.966   1.971   1.972
  1.974   1.976   1.980   1.981   1.981   1.982   1.983   1.986
  1.987   1.989   1.991   1.991   1.993   1.994   1.996   1.996
  1.998   2.000   2.003   2.004   2.005   2.007   2.009   2.010
  2.012   2.015   2.016   2.017   2.017   2.018   2.019   2.020
  2.021   2.024   2.025   2.026   2.027   2.029   2.031   2.032
  2.033   2.033   2.034   2.036   2.037   2.038   2.040   2.041
  2.042   2.043   2.045   2.045   2.046   2.048   2.049   2.051
  2.052   2.052   2.053   2.054   2.056   2.056   2.058   2.060
  2.061   2.063   2.064   2.065   2.066   2.067   2.070   2.071
  2.072   2.073   2.074   2.076   2.077   2.077   2.080   2.081
  2.083   2.083   2.086   2.088   2.089   2.090   2.091   2.092
  2.094   2.097   2.100   2.101   2.102   2.106   2.106   2.110
  2.113   2.113   2.117   2.118   2.120   2.123   2.124   2.126
  2.128   2.130   2.133   2.138   2.141   2.144   2.146   2.147
  2.152   2.152   2.155   2.156   2.159   2.162   2.169   2.173
  2.177   2.179   2.184   2.192   2.199   2.200   2.205   2.208
  2.209   2.213   2.219   2.221   2.223   2.223   2.228   2.230
  2.233   2.237   2.237   2.239   2.246   2.248   2.252   2.254
  2.254   2.256   2.259   2.260   2.264   2.267   2.268   2.274
  2.275   2.276   2.278   2.280   2.283   2.285   2.286   2.289
  2.290   2.291   2.293   2.296   2.298   2.299   2.301   2.303
  2.304   2.307   2.309   2.313   2.314   2.315   2.317   2.319
  2.323   2.329   2.331   2.334   2.336   2.338   2.339   2.342
  2.343   2.344   2.347   2.348   2.349   2.351   2.356   2.357
  2.359   2.360   2.364   2.365   2.368   2.369   2.371   2.373
  2.374   2.375   2.379   2.381   2.381   2.385   2.387   2.388
  2.389   2.391   2.392   2.394   2.395   2.398   2.399   2.399
  2.402   2.404   2.405   2.407   2.408   2.412   2.412   2.413
  2.414   2.416   2.417   2.419   2.420   2.423   2.425   2.427
  2.429   2.431   2.433   2.439   2.442   2.445   2.450   2.451
  2.453   2.453   2.456   2.457   2.459   2.463   2.465   2.467
  2.469   2.471   2.473   2.474   2.475   2.476   2.478   2.479
  2.484   2.485   2.487   2.490   2.491   2.494   2.495   2.499
  2.501   2.502   2.504   2.506   2.506   2.507   2.511   2.511
  2.514   2.514   2.515   2.518   2.521   2.523   2.527   2.529
  2.530   2.532   2.533   2.535   2.537   2.538   2.540   2.544
  2.547   2.550   2.550   2.557   2.561   2.562   2.566   2.568
  2.574   2.574   2.580   2.581   2.583   2.585   2.586   2.591
  2.593   2.594   2.596   2.597   2.603   2.605   2.607   2.608
  2.612   2.614   2.615   2.616   2.618   2.621   2.622   2.625
  2.626   2.629   2.630   2.631   2.632   2.634   2.634   2.635
  2.636   2.640   2.641   2.643   2.646   2.647   2.649   2.651
  2.651   2.654   2.655   2.658   2.659   2.661   2.663   2.664
  2.666   2.667   2.668   2.670   2.671   2.673   2.674   2.678
  2.679   2.680   2.682   2.683   2.685   2.686   2.688   2.690
  2.694   2.695   2.698   2.703   2.703   2.705   2.706   2.709
  2.711   2.713   2.714   2.721   2.723   2.725   2.727   2.729
  2.731   2.733   2.736   2.739   2.741   2.742   2.745   2.746
  2.748   2.752   2.754   2.754   2.757   2.760   2.760   2.764
  2.767   2.767   2.770   2.772   2.774   2.777   2.783   2.784
  2.786   2.788   2.789   2.792   2.795   2.797   2.800   2.803
  2.804   2.805   2.808   2.816   2.817   2.819   2.823   2.824
  2.826   2.828   2.833   2.837   2.840   2.843   2.845   2.847
  2.849   2.852   2.853   2.854   2.855   2.859   2.862   2.864
  2.867   2.868   2.871   2.872   2.876   2.876   2.879   2.882
  2.883   2.887   2.889   2.889   2.893   2.893   2.895   2.896
  2.896   2.900   2.900   2.903   2.904   2.906   2.907   2.909
  2.910   2.913   2.914   2.916   2.919   2.920   2.921   2.923
  2.926   2.929   2.930   2.931   2.933   2.935   2.938   2.939
  2.941   2.943   2.947   2.950   2.951   2.954   2.954   2.956
  2.964   2.969   2.970   2.974   2.977   2.978   2.980   2.981
  2.985   2.988   2.990   2.993   2.993   2.996   2.999   3.005
  3.006   3.011   3.013   3.015   3.020   3.024   3.024   3.026
  3.030   3.032   3.033   3.034   3.037   3.039   3.042   3.044
  3.049   3.049   3.051   3.053   3.060   3.064   3.066   3.069
  3.073   3.077   3.079   3.084   3.091   3.095   3.097   3.103
  3.107   3.112   3.135   3.137   3.141   3.148   3.150   3.156
  3.163   3.167   3.170   3.173   3.178   3.179   3.185   3.188
  3.196   3.201   3.208   3.212   3.223   3.226   3.237   3.244
  3.248   3.255   3.257   3.270   3.274   3.279   3.283   3.286
  3.293   3.299   3.310   3.320   3.329   3.330   3.334   3.338
  3.339   3.340   3.347   3.347   3.357   3.374   3.378   3.388
  3.388   3.396   3.405   3.422   3.422   3.436   3.442   3.448
  3.463   3.469   3.472   3.473   3.486   3.488   3.491   3.495
  3.498   3.500   3.503   3.506   3.513   3.520   3.535   3.550
  3.553   3.556   3.561   3.561   3.564   3.580   3.598   3.599
  3.609   3.637   3.685   3.692   3.864   3.884   4.030   4.032
  4.075   4.078   4.092   4.097   4.100   4.102   4.104   4.106
  4.110   4.111   4.114   4.120   4.120   4.123   4.128   4.132
  4.134   4.138   4.141   4.146   4.147   4.152   4.157   4.159
  4.163   4.169   4.174   4.175   4.180   4.182   4.187   4.188
  4.191   4.197   4.204   4.210   4.215   4.222   4.232   4.246
  4.247   4.250   4.255   4.257   4.262   4.263   4.264   4.266
  4.269   4.280   4.281   4.288   4.289   4.294   4.297   4.300
  4.303   4.319   4.330   4.339   4.375   4.391   4.395   4.396
  4.401   4.403   4.406   4.410   4.411   4.413   4.418   4.422
  4.426   4.429   4.435   4.440   4.448   4.453   4.467   4.471
  4.472   4.487   4.497   4.501   4.533   4.537   4.550   4.555
  4.567   4.577   4.615   4.623   4.630   4.640   4.644   4.652
  4.657   4.660   4.680   4.694   4.695   4.698   4.703   4.704
  4.706   4.709   4.712   4.716   4.755   4.763   4.811   4.812
  4.846   4.852   4.861   4.863   4.874   4.886   4.899   4.902
  4.920   4.926   4.960   4.968   4.971   4.974   4.980   4.986
  4.989   4.994   5.003   5.013   5.151   5.171   5.172   5.179
  5.199   5.211   5.222   5.229   5.286   5.313   5.342   5.349
  5.372   5.374
 --------------------------------------------------------------
 
          Ground-State Mulliken Net Atomic Charges

     Atom                 Charge (a.u.)
  ----------------------------------------
      1 O                    -0.440939
      2 C                    -0.086500
      3 H                     0.130827
      4 H                     0.133057
      5 H                     0.116991
      6 O                    -0.502277
      7 C                     0.604236
      8 C                    -0.255011
      9 H                     0.128945
     10 H                     0.145282
     11 C                    -0.194461
     12 H                     0.107858
     13 H                     0.120106
     14 C                    -0.187147
     15 H                     0.109209
     16 H                     0.106125
     17 C                     0.009157
     18 C                     0.096670
     19 C                    -0.111231
     20 H                     0.084292
     21 C                    -0.082250
     22 H                     0.093525
     23 C                    -0.085343
     24 H                     0.090654
     25 C                    -0.092514
     26 H                     0.090919
     27 C                    -0.110062
     28 H                     0.098778
     29 C                    -0.005602
     30 C                    -0.004393
     31 C                    -0.021745
     32 C                     0.041390
     33 C                    -0.021938
     34 C                    -0.020191
     35 C                     0.018188
     36 C                    -0.027629
     37 C                     0.013574
     38 C                    -0.067019
     39 C                    -0.080521
     40 C                    -0.013028
     41 C                     0.007209
     42 C                    -0.017851
     43 C                     0.011575
     44 C                     0.018690
     45 C                    -0.106527
     46 C                     0.011578
     47 C                     0.043818
     48 C                    -0.012132
     49 C                     0.005416
     50 C                     0.011814
     51 C                    -0.034046
     52 C                     0.012352
     53 C                     0.010983
     54 C                     0.045732
     55 C                     0.020045
     56 C                     0.008416
     57 C                     0.007831
     58 C                     0.006825
     59 C                     0.024679
     60 C                     0.031130
     61 C                     0.024569
     62 C                     0.000931
     63 C                     0.025348
     64 C                    -0.015177
     65 C                    -0.011933
     66 C                    -0.037366
     67 C                    -0.016155
     68 C                     0.008837
     69 C                    -0.014059
     70 C                     0.060248
     71 C                    -0.021417
     72 C                    -0.004327
     73 C                    -0.015216
     74 C                     0.004530
     75 C                    -0.000687
     76 C                     0.027757
     77 C                    -0.029772
     78 C                     0.017235
     79 C                     0.007168
     80 C                    -0.007688
     81 C                     0.029781
     82 C                     0.007950
     83 C                    -0.027319
     84 C                    -0.003524
     85 C                     0.011029
     86 C                    -0.006791
     87 C                    -0.051871
     88 C                    -0.003314
     89 O                    -0.481090
     90 C                    -0.087429
     91 H                     0.141508
     92 H                     0.126565
     93 H                     0.131079
     94 O                    -0.514014
     95 C                     0.637922
     96 C                    -0.272223
     97 H                     0.143011
     98 H                     0.140931
     99 C                    -0.185737
    100 H                     0.134498
    101 H                     0.098954
    102 C                    -0.195379
    103 H                     0.106623
    104 H                     0.105773
    105 C                     0.021517
    106 C                     0.067120
    107 C                    -0.101981
    108 H                     0.135445
    109 C                    -0.100658
    110 H                     0.094018
    111 C                    -0.082577
    112 H                     0.092145
    113 C                    -0.098290
    114 H                     0.086717
    115 C                    -0.093217
    116 H                     0.092038
    117 C                    -0.012077
    118 C                    -0.005784
    119 C                    -0.011583
    120 C                    -0.049242
    121 C                    -0.011806
    122 C                     0.005802
    123 C                    -0.031934
    124 C                     0.017595
    125 C                    -0.017352
    126 C                     0.051094
    127 C                    -0.074833
    128 C                     0.004199
    129 C                    -0.018336
    130 C                    -0.016334
    131 C                     0.008502
    132 C                    -0.000390
    133 C                    -0.061557
    134 C                    -0.021157
    135 C                    -0.005190
    136 C                    -0.006158
    137 C                    -0.009293
    138 C                     0.008799
    139 C                     0.001189
    140 C                     0.024287
    141 C                     0.037592
    142 C                    -0.030480
    143 C                     0.008221
    144 C                    -0.007942
    145 C                     0.020473
    146 C                    -0.013506
    147 C                     0.001485
    148 C                     0.004014
    149 C                    -0.010002
    150 C                     0.012517
    151 C                     0.006842
    152 C                    -0.012211
    153 C                     0.011000
    154 C                     0.008624
    155 C                    -0.018459
    156 C                    -0.008909
    157 C                     0.013934
    158 C                     0.017215
    159 C                     0.026400
    160 C                    -0.008215
    161 C                    -0.020602
    162 C                    -0.000850
    163 C                     0.030321
    164 C                     0.017647
    165 C                    -0.009014
    166 C                    -0.007966
    167 C                    -0.044306
    168 C                     0.017356
    169 C                     0.041813
    170 C                    -0.011605
    171 C                    -0.000615
    172 C                     0.015242
    173 C                     0.012768
    174 C                     0.010558
    175 C                    -0.013804
    176 C                    -0.003536
  ----------------------------------------
  Sum of atomic charges =     0.000000

 -----------------------------------------------------------------
                    Cartesian Multipole Moments
 -----------------------------------------------------------------
    Charge (ESU x 10^10)
                 0.0000
    Dipole Moment (Debye)
         X      -4.9832      Y       0.0409      Z      -0.5207
       Tot       5.0105
    Quadrupole Moments (Debye-Ang)
        XX    -760.2957     XY       5.4880     YY    -834.9827
        XZ      -2.9399     YZ      -2.3069     ZZ    -784.5663
    Octopole Moments (Debye-Ang^2)
       XXX    -837.5285    XXY     -70.8674    XYY    -241.8701
       YYY     273.2661    XXZ     -49.0944    XYZ      71.3097
       YYZ     -21.5885    XZZ    -167.7713    YZZ     -97.1722
       ZZZ      44.6120
    Hexadecapole Moments (Debye-Ang^3)
      XXXX -156999.6528   XXXY    -925.3254   XXYY  -34133.0127
      XYYY     637.4579   YYYY  -42266.9855   XXXZ     408.3563
      XXYZ    -247.1209   XYYZ    -316.7313   YYYZ     278.1870
      XXZZ  -29929.0424   XYZZ    -997.3845   YYZZ   -9648.7007
      XZZZ      84.8546   YZZZ    -484.0631   ZZZZ  -23349.5500
 -----------------------------------------------------------------
Archival summary:
1\1\mn251\SP\ProcedureUnspecified\6-31G**\428\afmv_a\SatOct1307:05:242018SatOct1307:05:242018\0\\#,ProcedureUnspecified,6-31G**,\\0,1\C\C,1,1.39403\C,2,1.38913,1,119.152\C,3,1.39676,2,120.817,1,139.05,0\C,4,1.37936,3,120.772,2,-3.90825,0\C,5,1.38414,4,122.315,3,-132.476,0\C,4,1.39875,3,106.155,2,-140.701,0\C,7,1.38655,4,112.341,3,-8.62824,0\C,8,1.37605,7,122.31,4,146.074,0\C,9,1.37903,8,120.991,7,-132.304,0\C,10,1.36991,9,104.361,8,136.556,0\C,11,1.39966,10,110.864,9,2.8427,0\C,12,1.31763,11,108.21,10,-2.64018,0\C,12,1.39005,11,120.301,10,-148.293,0\C,13,1.39385,12,118.788,11,-142.115,0\C,15,1.39797,13,121.485,12,136.812,0\C,16,1.39811,15,110.284,13,-145.284,0\C,6,1.40227,5,112.567,4,142.162,0\C,18,1.39239,6,123.984,5,-149.662,0\C,19,1.39615,18,117.18,6,132.106,0\C,20,1.3907,19,123.321,18,10.1636,0\C,18,1.39655,6,104.933,5,-5.41639,0\C,22,1.38191,18,121.008,6,-146.988,0\C,22,1.39669,18,108.119,6,5.36818,0\C,20,1.39831,19,107.856,18,-136.004,0\C,14,1.4055,12,120.699,11,8.2032,0\C,26,1.36151,14,112.935,12,143.305,0\C,27,1.352,26,105.547,14,-5.15864,0\C,1,1.40902,2,117.001,3,3.489,0\C,29,1.36982,1,124.594,2,-3.163,0\C,30,1.36273,29,109.693,1,-141.264,0\C,26,1.40906,14,120.253,12,-17.1266,0\C,32,1.39848,26,114.307,14,146.484,0\C,33,1.39299,32,124.819,26,7.32469,0\C,34,1.3855,33,121.782,32,-136.856,0\C,35,1.40122,34,109.193,33,142.702,0\C,33,1.40593,32,105.119,26,-136.797,0\C,37,1.37403,33,111.479,32,4.29061,0\C,2,1.40954,1,105.867,3,138.889,0\C,23,1.40979,22,116.53,18,139.962,0\C,40,1.38121,23,107.622,22,-141.573,0\C,40,1.38182,23,123.104,22,9.09674,0\C,42,1.38406,40,120.778,23,-136.889,0\C,41,1.40216,40,109.826,23,3.88323,0\C,27,1.41287,26,121.119,14,-152.656,0\C,45,1.40813,27,118.972,26,132.853,0\C,30,1.41308,29,118.817,1,4.34048,0\C,28,1.41452,27,110.99,26,2.62044,0\C,48,1.40681,28,122.719,27,-145.699,0\C,32,1.41529,26,115.678,14,17.1117,0\C,17,1.42091,16,111.274,15,-7.64019,0\C,43,1.421,42,118.167,40,-6.00286,0\C,52,1.38719,43,120.997,42,2.12741,0\C,52,1.3936,43,120.763,42,143.3,0\C,53,1.39361,52,110.176,43,145.795,0\C,55,1.39168,53,105.731,52,-3.7196,0\C,25,1.42459,20,111.066,19,0.654564,0\C,38,1.42573,37,123.015,33,140.202,0\C,58,1.36067,38,121.448,37,1.68725,0\C,19,1.47116,18,117.308,6,-5.68015,0\C,51,1.5225,17,123.806,16,-146.323,0\C,61,1.49149,51,125.793,17,-0.329536,0\C,62,1.40527,61,115.718,51,72.1033,0\H,63,1.08673,62,121.82,61,5.32473,0\C,63,1.40258,62,117.343,61,-172.764,0\H,65,1.085,63,109.768,62,-179.51,0\C,62,1.41273,61,122.715,51,-107.13,0\H,67,1.08512,62,116.329,61,-10.6456,0\C,67,1.38471,62,118.782,61,176.418,0\H,69,1.08633,67,116.842,62,170.052,0\C,69,1.38554,67,121.537,62,-5.31268,0\H,71,1.08604,69,119.194,67,177.769,0\C,61,1.59865,51,112.183,17,145.346,0\H,73,1.09681,61,113.807,51,17.9203,0\H,73,1.09697,61,107.788,51,-94.3201,0\C,73,1.61659,61,117.218,51,149.363,0\H,76,1.09726,73,107.804,61,144.875,0\H,76,1.09733,73,109.219,61,26.0098,0\C,76,1.54973,73,116.634,61,-91.1508,0\H,79,1.09652,76,105.763,73,-25.913,0\H,79,1.09718,76,116.963,73,-134.796,0\C,79,1.4619,76,118.694,73,80.695,0\O,82,1.25077,79,124.693,76,15.0421,0\O,82,1.36334,79,111.39,76,-162.589,0\C,84,1.47796,82,121.976,79,-169.094,0\H,85,1.09679,84,116.309,82,-48.4845,0\H,85,1.09691,84,108.304,82,-168.252,0\H,85,1.09749,84,108.451,82,75.1919,0\H,58,2.59882,38,96.6344,37,124.92,0\C,89,1.08588,58,120.938,38,-111.703,0\C,90,1.40777,89,115.761,58,-75.8119,0\H,91,1.08579,90,121.298,89,6.55056,0\C,90,1.41197,89,121.41,58,112.025,0\H,93,1.08614,90,121.208,89,-11.5768,0\C,93,1.38579,90,119.381,89,173.998,0\H,95,1.08636,93,117.832,90,178.008,0\C,95,1.39381,93,118.015,90,-0.0304257,0\H,97,1.08616,95,112.372,93,-178.218,0\C,97,1.38333,95,124.161,93,-0.0917275,0\C,99,1.5391,97,118.931,95,178.659,0\C,100,1.50757,99,121.1,97,-61.8836,0\C,101,1.4756,100,130.878,99,-11.149,0\C,102,1.35746,101,108.953,100,152.001,0\C,103,1.38819,102,121.555,101,157.298,0\C,104,1.42608,103,118.534,102,-139.269,0\C,105,1.36857,104,120.09,103,-5.59181,0\C,105,1.37563,104,106.774,103,137.487,0\C,107,1.36138,105,111.403,104,0.513067,0\C,108,1.38071,107,107.473,105,-2.11333,0\C,107,1.39045,105,118.55,104,-146.896,0\C,108,1.39079,107,120.965,105,-145.717,0\C,111,1.37378,108,119.159,107,137.25,0\C,112,1.38505,111,110.372,108,-144.901,0\C,109,1.39083,108,121.735,107,-143.023,0\C,114,1.38787,109,119.818,108,138.418,0\C,115,1.37443,114,106.391,109,-137.126,0\C,112,1.40042,111,121.059,108,1.08277,0\C,117,1.37237,112,120.034,111,-136.231,0\C,118,1.39433,117,119.47,112,-1.61693,0\C,119,1.34643,118,122.942,117,-5.3413,0\C,120,1.38217,119,107.444,118,141.422,0\C,110,1.40282,107,124.427,105,4.2431,0\C,119,1.40518,118,117.992,117,137.539,0\C,123,1.38354,119,107.62,118,-149.419,0\C,106,1.40604,105,119.588,104,137.169,0\C,125,1.38923,106,111.066,105,-141.324,0\C,126,1.36955,125,105.722,106,1.16591,0\C,127,1.36556,126,110.445,125,-3.11043,0\C,127,1.37878,126,118.883,125,145.713,0\C,128,1.39318,127,120.662,126,141.69,0\C,130,1.36014,128,120.338,127,9.42724,0\C,126,1.40222,125,120.172,106,149.149,0\C,132,1.39541,126,117.653,125,-136.449,0\C,133,1.36473,132,110.397,126,141.433,0\C,134,1.40788,133,107.705,132,-4.65327,0\C,122,1.41509,110,107.216,107,143.885,0\C,136,1.36848,122,112.36,110,0.222873,0\C,137,1.39085,136,104.404,122,-2.96096,0\C,138,1.37016,137,121.65,136,-149.637,0\C,139,1.38013,138,120.577,137,14.3341,0\C,140,1.39483,139,118.743,138,-10.8435,0\C,141,1.4021,140,121.084,139,6.9905,0\C,141,1.40454,140,115.494,139,137.503,0\C,143,1.35431,141,109.126,140,-136.89,0\C,144,1.36301,143,109.236,141,0.663528,0\C,144,1.39634,143,123.755,141,147.177,0\C,146,1.39069,144,118.05,143,-2.16782,0\C,131,1.41795,130,118.23,128,-11.1424,0\C,148,1.3961,131,124.523,130,-125.035,0\C,149,1.4215,148,113.566,131,147.552,0\C,150,1.34269,149,106.163,148,-6.68828,0\C,150,1.40124,149,119.358,148,-146.811,0\C,152,1.3761,150,118.021,149,134.78,0\C,152,1.40278,150,120.388,149,-2.10709,0\C,154,1.42074,152,119.673,150,-2.85752,0\C,155,1.38316,154,119.542,152,139.506,0\C,156,1.40261,155,109.743,154,-147.724,0\C,155,1.40376,154,121.856,152,-0.660712,0\C,135,1.42382,134,109.052,133,4.5636,0\C,158,1.43238,155,112.179,154,148.006,0\C,100,1.53574,99,114.051,97,80.9181,0\H,161,1.09704,100,111.389,99,-52.5086,0\H,161,1.09763,100,113.159,99,-165.711,0\C,161,1.55095,100,110.819,99,73.6799,0\H,164,1.09587,161,107.089,100,-44.9539,0\H,164,1.09737,161,108.615,100,67.3459,0\C,164,1.55878,161,110.751,100,-163.872,0\H,167,1.09723,164,111.405,161,43.6632,0\H,167,1.09852,164,100.362,161,-81.7303,0\C,167,1.44474,164,115.108,161,166.009,0\O,170,1.23174,167,126.272,164,-146.685,0\O,170,1.32412,167,108.432,164,43.0068,0\C,172,1.44363,170,114.577,167,173.101,0\H,173,1.09626,172,109.017,170,57.1844,0\H,173,1.09723,172,113.313,170,168.728,0\H,173,1.09762,172,110.599,170,-69.9569,0\\\@

 Total job time:  882.45s(wall), 8407.63s(cpu) 
 Sat Oct 13 07:05:24 2018

        *************************************************************
        *                                                           *
        *  Thank you very much for using Q-Chem.  Have a nice day.  *
        *                                                           *
        *************************************************************


