
Running Job 1 of 1 ./8/28.qcin
qchem ./8/28.qcin_37351.0 /tmpu/cab_g/afmv_a/scratch_qchem/qchem37351/ 1
/tmpu/appuserlic/qchem4.4/serial-multicore/exe/qcprog.exe_s ./8/28.qcin_37351.0 /tmpu/cab_g/afmv_a/scratch_qchem/qchem37351/
Check license passed

                  Welcome to Q-Chem
     A Quantum Leap Into The Future Of Chemistry


 Q-Chem 4.4, Q-Chem, Inc., Pleasanton, CA (2016)

 Y. Shao,  Z. Gan,  E. Epifanovsky,  A. T. B. Gilbert,  M. Wormit,  
 J. Kussmann,  A. W. Lange,  A. Behn,  J. Deng,  X. Feng,  D. Ghosh,  
 M. Goldey,  P. R. Horn,  L. D. Jacobson,  I. Kaliman,  F. Rob,  
 R. Z. Khaliullin,  T. Kus,  A. Landau,  J. Liu,  E. I. Proynov,  Y. M. Rhee,  
 R. M. Richard,  M. A. Rohrdanz,  R. P. Steele,  E. J. Sundstrom,  
 H. L. Woodcock III,  P. M. Zimmerman,  D. Zuev,  B. Albrecht,  E. Alguire,  
 B. Austin,  S. A. Baeppler,  G. J. O. Beran,  Y. A. Bernard,  E. Berquist,  
 K. Brandhorst,  K. B. Bravaya,  S. T. Brown,  D. Casanova,  C.-M. Chang,  
 Y. Chen,  S. H. Chien,  K. D. Closser,  M. P. Coons,  D. L. Crittenden,  
 S. Dasgupta,  M. Diedenhofen,  R. A. DiStasio Jr.,  H. Do,  A. D. Dutoi,  
 R. G. Edgar,  P.-T. Fang,  S. Fatehi,  Q. Feng,  L. Fusti-Molnar,  
 A. Ghysels,  A. Golubeva-Zadorozhnaya,  J. Gomes,  A. Gunina,  
 M. W. D. Hanson-Heine,  P. H. P. Harbach,  A. W. Hauser,  J. E. Herr,  
 E. G. Hohenstein,  Z. C. Holden,  K. Hui,  T.-C. Jagau,  H. Ji,  B. Kaduk,  
 K. Khistyaev,  Jaehoon Kim,  Jihan Kim,  R. A. King,  P. Klunzinger,  
 K. Koh,  D. Kosenkov,  T. Kowalczyk,  C. M. Krauter,  A. Kunitsa,  
 K. U. Lao,  A. Laurent,  K. V. Lawler,  J. Lee,  D. Lefrancois,  S. Lehtola,  
 S. V. Levchenko,  C. Y. Lin,  Y.-S. Lin,  F. Liu,  E. Livshits,  
 R. C. Lochan,  A. Luenser,  P. Manohar,  S. F. Manzer,  S.-P. Mao,  Y. Mao,  
 N. Mardirossian,  A. V. Marenich,  L. A. Martinez-Martinez,  S. A. Maurer,  
 N. J. Mayhall,  J.-M. Mewes,  A. F. Morrison,  K. Nanda,  T. S. Nguyen-Beck,  
 C. M. Oana,  R. Olivares-Amaya,  D. P. O'Neill,  J. A. Parkhill,  
 T. M. Perrine,  R. Peverati,  P. A. Pieniazek,  F. Plasser,  A. Prociuk,  
 D. R. Rehn,  E. Rosta,  N. J. Russ,  N. Sergueev,  S. M. Sharada,  
 S. Sharma,  D. W. Small,  A. Sodt,  T. Stauch,  T. Stein,  D. Stuck,  
 Y.-C. Su,  A. J. W. Thom,  T. Tsuchimochi,  L. Vogt,  O. Vydrov,  T. Wang,  
 M. A. Watson,  J. Wenzel,  A. White,  C. F. Williams,  V. Vanovschi,  
 K. Yao,  S. Yeganeh,  S. R. Yost,  Z.-Q. You,  I. Y. Zhang,  X. Zhang,  
 Y. Zhao,  B. R. Brooks,  G. K. L. Chan,  D. M. Chipman,  C. J. Cramer,  
 W. A. Goddard III,  M. S. Gordon,  W. J. Hehre,  A. Klamt,  
 H. F. Schaefer III,  M. W. Schmidt,  C. D. Sherrill,  D. G. Truhlar,  
 A. Warshel,  X. Xu,  A. Aspuru-Guzik,  R. Baer,  A. T. Bell,  N. A. Besley,  
 J.-D. Chai,  A. Dreuw,  B. D. Dunietz,  T. R. Furlani,  S. R. Gwaltney,  
 C.-P. Hsu,  Y. Jung,  J. Kong,  D. S. Lambrecht,  W. Liang,  C. Ochsenfeld,  
 V. A. Rassolov,  L. V. Slipchenko,  J. E. Subotnik,  T. Van Voorhis,  
 J. M. Herbert,  A. I. Krylov,  P. M. W. Gill,  M. Head-Gordon

 Contributors to earlier versions of Q-Chem not listed above: 
 R. D. Adamson,  J. Baker,  E. F. C. Byrd,  A. K. Chakraborty,  C.-L. Cheng,  
 H. Dachsel,  R. J. Doerksen,  G. Hawkins,  A. Heyden,  S. Hirata,  
 G. Kedziora,  F. J. Keil,  C. Kelley,  P. P. Korambath,  W. Kurlancheek,  
 A. M. Lee,  M. S. Lee,  D. Liotard,  I. Lotan,  P. E. Maslen,  N. Nair,  
 D. Neuhauser,  R. Olson,  B. Peters,  J. Ritchie,  N. E. Schultz,  
 N. Shenvi,  A. C. Simmonett,  K. S. Thanthiriwatte,  Q. Wu,  W. Zhang

 Please cite Q-Chem as follows:
 Y. Shao et al., Mol. Phys. 113, 184-215 (2015)
 DOI: 10.1080/00268976.2014.952696

 Q-Chem 4.4.2 for Intel X86 Linux

 Parts of Q-Chem use Armadillo 5.200.1 (Boston Tea Smuggler).
 http://arma.sourceforge.net/

 Q-Chem begins on Sat Oct 13 07:20:04 2018  

Host: 
0

     Scratch files written to /tmpu/cab_g/afmv_a/scratch_qchem/qchem37351//
 Dec716 11556_ 22328  22283 4050   
Processing $rem in /tmpu/appuserlic/qchem4.4/serial-multicore/config/preferences.
 MEM_TOTAL  2000 
FILE_GEOM_ORG=        593

Checking the input file for inconsistencies... 	...done.

--------------------------------------------------------------
User input:
--------------------------------------------------------------
$comment
SP
$end

$rem
MEM_STATIC 5000
MEM_TOTAL 20000
JOBTYPE SP
EXCHANGE B3LYP
BASIS 6-31g(d,p)
$end

$molecule
0 1
O         -23.213000     11.870000      5.867000
C         -24.498000     12.520000      5.777000
H         -25.337000     11.836000      5.597000
H         -24.405000     13.266000      4.978000
H         -24.776000     13.084000      6.675000
O         -22.449000     11.984000      3.645000
C         -22.345000     11.613000      4.786000
C         -21.223000     10.732000      5.238000
H         -21.821000     10.025000      5.826000
H         -20.559000     11.251000      5.939000
C         -20.417000     10.059000      4.146000
H         -21.062000      9.615000      3.378000
H         -19.938000     10.862000      3.572000
C         -19.346000      9.048000      4.647000
H         -18.611000      8.871000      3.852000
H         -18.819000      9.704000      5.352000
C         -19.840000      7.726000      5.196000
C         -20.703000      7.002000      4.214000
C         -22.102000      7.349000      4.135000
H         -22.543000      8.090000      4.795000
C         -22.994000      6.746000      3.217000
H         -24.043000      7.024000      3.237000
C         -22.592000      5.796000      2.292000
H         -23.318000      5.337000      1.627000
C         -21.219000      5.494000      2.315000
H         -20.777000      4.735000      1.676000
C         -20.299000      6.064000      3.231000
H         -19.264000      5.749000      3.135000
C         -21.420000      4.621000      9.543000
C         -20.191000      3.009000      8.255000
C         -16.550000      2.830000     10.983000
C         -18.819000      8.846000     10.443000
C         -14.717000      5.170000      9.226000
C         -21.067000      4.150000      8.314000
C         -16.087000      8.075000     10.719000
C         -18.898000      2.921000     11.538000
C         -17.380000      5.054000      6.141000
C         -17.940000      9.048000      9.359000
C         -18.820000      6.913000      5.926000
C         -16.650000      6.221000      6.417000
C         -16.193000      8.202000      8.319000
C         -15.240000      6.983000     10.653000
C         -19.692000      4.477000      6.601000
C         -15.373000      4.697000     11.512000
C         -20.003000      7.454000      6.688000
C         -19.693000      8.402000      7.848000
C         -14.962000      4.240000     10.273000
C         -18.893000      6.209000     12.837000
C         -17.427000      4.435000     12.658000
C         -18.699000      3.964000     12.495000
C         -20.034000      2.929000     10.710000
C         -20.515000      8.087000      8.983000
C         -18.733000      5.399000      6.017000
C         -19.640000      2.468000      9.432000
C         -16.537000      8.724000      9.524000
C         -19.288000      3.287000      7.152000
C         -15.550000      6.161000      7.281000
C         -20.374000      7.470000     11.325000
C         -17.866000      2.376000     10.750000
C         -17.457000      7.330000      6.372000
C         -20.680000      5.099000     11.618000
C         -15.259000      7.110000      8.217000
C         -16.979000      3.848000      6.713000
C         -16.576000      6.639000     12.434000
C         -16.974000      7.817000     11.731000
C         -15.938000      3.784000      7.588000
C         -20.131000      8.320000     10.292000
C         -18.357000      8.771000      8.031000
C         -19.273000      7.459000     12.198000
C         -20.928000      6.469000      7.403000
C         -17.474000      2.362000      8.347000
C         -17.227000      8.304000      7.354000
C         -15.143000      4.930000      7.879000
C         -21.032000      6.278000     11.054000
C         -15.688000      3.063000      9.906000
C         -20.882000      4.056000     10.708000
C         -16.344000      3.862000     11.976000
C         -17.947000      2.944000      7.189000
C         -16.201000      2.864000      8.573000
C         -20.731000      5.035000      7.300000
C         -21.247000      6.892000      8.712000
C         -17.563000      5.810000     12.892000
C         -18.327000      2.116000      9.472000
C         -14.809000      6.562000      9.354000
C         -18.348000      8.274000     11.644000
C         -15.538000      6.135000     11.668000
C         -21.506000      5.983000      9.752000
C         -19.651000      5.036000     12.578000
O         -10.541000      6.292000     -2.164000
C         -11.230000      7.408000     -2.822000
H         -10.561000      8.094000     -3.355000
H         -11.643000      7.909000     -1.938000
H         -12.115000      7.107000     -3.397000
O         -12.585000      5.502000     -1.370000
C         -11.341000      5.422000     -1.367000
C         -10.561000      4.371000     -0.684000
H          -9.806000      5.035000     -0.244000
H         -10.166000      3.751000     -1.498000
C         -11.348000      3.570000      0.412000
H         -11.258000      4.111000      1.362000
H         -12.400000      3.584000      0.101000
C         -10.783000      2.145000      0.645000
H         -10.671000      1.615000     -0.310000
H          -9.748000      2.274000      0.984000
C         -11.516000      1.301000      1.793000
C         -12.654000      0.629000      1.145000
C         -12.306000     -0.502000      0.386000
H         -11.269000     -0.806000      0.273000
C         -13.244000     -1.344000     -0.159000
H         -12.924000     -2.238000     -0.686000
C         -14.597000     -1.111000      0.104000
H         -15.420000     -1.695000     -0.298000
C         -14.913000      0.081000      0.726000
H         -15.956000      0.339000      0.882000
C         -13.967000      0.978000      1.344000
H         -14.258000      1.761000      2.037000
C         -13.766000      1.222000      6.768000
C         -13.220000     -1.051000      6.400000
C          -9.790000     -1.292000      9.340000
C          -9.630000      4.108000      6.076000
C          -7.298000     -0.889000      6.833000
C         -13.652000      0.160000      5.870000
C          -7.358000      2.748000      6.753000
C         -11.912000     -0.233000      9.564000
C         -10.045000     -1.444000      3.888000
C          -8.846000      3.618000      5.068000
C         -10.829000      0.529000      2.918000
C          -8.920000     -0.629000      3.681000
C          -7.641000      1.735000      4.616000
C          -6.924000      1.509000      7.280000
C         -12.381000     -0.846000      4.255000
C          -7.913000      0.042000      9.019000
C         -11.521000      1.779000      3.226000
C         -10.831000      2.985000      3.819000
C          -7.883000     -1.062000      8.134000
C         -10.556000      3.088000      9.306000
C          -9.845000      1.032000     10.104000
C         -11.243000      0.962000      9.929000
C         -12.927000     -0.146000      8.649000
C         -11.663000      3.547000      4.878000
C         -11.223000     -0.770000      3.444000
C         -12.881000     -1.191000      7.734000
C          -7.737000      2.886000      5.457000
C         -12.366000     -1.620000      5.418000
C          -7.885000     -0.674000      4.608000
C         -11.568000      4.055000      7.266000
C         -11.188000     -1.401000      9.267000
C          -9.342000      0.586000      3.220000
C         -12.675000      2.274000      8.519000
C          -7.114000      0.483000      5.060000
C         -10.067000     -2.315000      4.992000
C          -8.271000      2.450000      8.863000
C          -8.180000      3.323000      7.760000
C          -9.038000     -2.361000      5.925000
C         -11.047000      4.125000      6.021000
C          -9.442000      2.916000      3.991000
C         -10.482000      3.979000      8.184000
C         -12.691000      1.637000      4.156000
C         -10.972000     -2.529000      7.147000
C          -8.722000      1.777000      3.730000
C          -7.946000     -1.548000      5.761000
C         -12.626000      3.117000      7.420000
C          -8.991000     -1.930000      8.359000
C         -13.366000      1.070000      8.118000
C          -9.112000     -0.133000      9.785000
C         -11.230000     -2.404000      5.761000
C          -9.578000     -2.571000      7.251000
C         -13.113000      0.307000      4.596000
C         -12.814000      2.723000      5.100000
C          -9.428000      2.306000      9.715000
C         -11.741000     -1.958000      8.123000
C          -6.798000      0.383000      6.436000
C          -9.339000      4.045000      7.399000
C          -7.578000      1.327000      8.540000
C         -13.335000      2.490000      6.391000
C         -11.651000      2.237000      9.467000
$end

--------------------------------------------------------------
 ----------------------------------------------------------------
             Standard Nuclear Orientation (Angstroms)
    I     Atom           X                Y                Z
 ----------------------------------------------------------------
    1      O     -11.0220529612     3.5521793801     1.5206594822
    2      C     -12.3979737423     3.9184507857     1.2871808717
    3      H     -12.6674131246     4.0042689602     0.2268909773
    4      H     -12.5552815801     4.8628761278     1.8227936211
    5      H     -13.1244090510     3.2153896281     1.7111864744
    6      O      -9.9836619180     5.6528605108     1.7276832216
    7      C      -9.9445325828     4.4512651455     1.6571461872
    8      C      -8.6535201791     3.6945695456     1.6640557884
    9      H      -8.8812421170     3.0108168718     0.8371204827
   10      H      -8.5490169702     3.0820828713     2.5671599646
   11      C      -7.3976944510     4.5086377862     1.4290586812
   12      H      -7.5130723061     5.2023008117     0.5873315535
   13      H      -7.3216950665     5.2134850753     2.2663999453
   14      C      -6.0879535833     3.6777346213     1.3093014678
   15      H      -5.2236730936     4.3327876427     1.4751440870
   16      H      -6.1698979602     3.1076880961     2.2438719992
   17      C      -5.8885012082     2.8718397367     0.0428603183
   18      C      -5.9820859011     3.7242703633    -1.1810158732
   19      C      -7.2880708649     4.0167418713    -1.7220470102
   20      H      -8.1914134650     3.6019074347    -1.2849583041
   21      C      -7.4848146094     4.8396386457    -2.8561236380
   22      H      -8.4909030806     4.9868039699    -3.2358779736
   23      C      -6.4421025682     5.4629490823    -3.5224303982
   24      H      -6.6372952392     6.0611535509    -4.4078869104
   25      C      -5.1695494161     5.2379515931    -2.9684930325
   26      H      -4.2601532514     5.6280318498    -3.4163791887
   27      C      -4.9317249560     4.4063027344    -1.8450360009
   28      H      -3.9004223818     4.3247867189    -1.5142246656
   29      C      -6.4220977522    -1.9327325893    -2.7257482659
   30      C      -4.2702802597    -1.1982960554    -3.4991908664
   31      C      -1.8109685715    -4.2175451532    -1.1397784595
   32      C      -6.8051374075    -2.0155536567     2.3014027457
   33      C      -1.2167743365    -2.1232956380     1.5404435796
   34      C      -5.6137821939    -0.8945519947    -3.0802874190
   35      C      -4.2303532689    -2.7269668334     3.3008120371
   36      C      -3.8844742547    -4.5102104441    -2.3415817751
   37      C      -2.6453931783     1.0766008094    -0.5432936714
   38      C      -5.9676278250    -1.0026523152     2.8123915635
   39      C      -4.7773355562     1.8729906046     0.0862228026
   40      C      -2.7477436341     1.0261811515     0.8559730088
   41      C      -3.8659624953    -0.3694773234     2.9896407429
   42      C      -2.9354951141    -3.0092751650     2.9034792234
   43      C      -4.3059255997     0.7093144701    -2.2746532015
   44      C      -1.9862375132    -4.3834726595     1.1169022580
   45      C      -6.1956660555     1.3807094766    -0.0509336250
   46      C      -6.7108116115     0.4631163478     1.0594950788
   47      C      -1.1363400029    -3.3376802183     0.8056412871
   48      C      -5.9493822789    -4.9625350613     0.4921308589
   49      C      -3.7573079179    -5.3603387741    -0.1118850367
   50      C      -4.4973494180    -5.1982511843    -1.2487492289
   51      C      -4.6307758136    -3.6022060353    -3.1127535956
   52      C      -7.4516956978    -0.6319344160     0.4981675492
   53      C      -3.9032520836     1.4076931848    -1.0659587777
   54      C      -3.7840478200    -2.5181464813    -3.4427650928
   55      C      -4.6895173375    -1.3728995863     3.3868134815
   56      C      -3.4505227063    -0.1507755896    -2.9160953105
   57      C      -2.0101494250     0.0741312520     1.5698720013
   58      C      -7.5087183170    -3.0562483907     0.4275688752
   59      C      -2.5807827538    -3.9796068659    -2.2986712484
   60      C      -3.9953886528     1.4160138975     1.2737855713
   61      C      -6.5310306823    -3.8885886873    -1.6101903156
   62      C      -2.4927680035    -0.6252202330     2.6372823292
   63      C      -1.7882676778     0.1926206062    -1.1962376789
   64      C      -4.2172005251    -4.6865916030     2.1166922088
   65      C      -5.0283180344    -3.6832783793     2.7296750482
   66      C      -1.0987201663    -0.7654732160    -0.5180176135
   67      C      -7.5503044993    -1.8747016365     1.0990268837
   68      C      -5.8677408659     0.2508259775     2.1543514696
   69      C      -6.7989045565    -4.0051278125     1.1827134099
   70      C      -6.5648645952     0.5373219599    -1.2713699957
   71      C      -1.7352631188    -1.7004519819    -2.4358520112
   72      C      -4.5510188652     0.6840970538     2.3327817002
   73      C      -1.1401918843    -0.8416069015     0.9041306764
   74      C      -7.3354739144    -3.0235245155    -0.9494512862
   75      C      -1.0056147635    -3.2022402759    -0.6126890459
   76      C      -5.9307596693    -3.2456314225    -2.6978638266
   77      C      -2.4199774371    -4.9436754276    -0.0464569028
   78      C      -2.1846534971    -0.3962768017    -2.4115130079
   79      C      -1.0249010967    -1.9158816892    -1.2642783520
   80      C      -5.6031008434     0.2684452416    -2.3242184160
   81      C      -7.3368241567    -0.5929822493    -0.9240058782
   82      C      -4.6658782907    -5.2380346863     0.9480293881
   83      C      -2.5366383959    -2.7661050374    -2.9611435784
   84      C      -2.0759701882    -1.8986694849     2.6238814318
   85      C      -6.3721121127    -3.3586063655     2.2902440996
   86      C      -2.9356985789    -4.1677870378     2.1992184768
   87      C      -7.2776457116    -1.7941713836    -1.6510578539
   88      C      -5.8701526711    -4.9273541877    -0.9256346278
   89      O       4.0242977499     8.7515281372     3.1834077434
   90      C       3.0011917236     9.7236535909     3.5851130598
   91      H       3.2860009571    10.3425188573     4.4442611743
   92      H       2.2025753186     9.0314366332     3.8784959514
   93      H       2.5716819615    10.2884800390     2.7478894053
   94      O       2.6246125066     7.9846968985     1.4847838677
   95      C       3.6761805471     7.8452848701     2.1395463762
   96      C       4.7323214874     6.8563239362     1.8462673529
   97      H       4.8882548761     6.5225692832     2.8801017738
   98      H       5.5658989961     7.4536427881     1.4571918767
   99      C       4.2925186663     5.6770850454     0.9091680428
  100      H       3.8657346619     4.8836102050     1.5348948932
  101      H       3.4991803245     6.0796303263     0.2671457905
  102      C       5.4750716978     5.0514754678     0.1253823681
  103      H       6.0607515493     5.8334604711    -0.3755643019
  104      H       6.1708099387     4.6583818419     0.8765233013
  105      C       5.0911831140     3.8064777615    -0.8074301889
  106      C       4.6740524589     4.3750710258    -2.0994192432
  107      C       5.7354707581     4.7990851894    -2.9179234786
  108      H       6.7660929268     4.7364729185    -2.5796164453
  109      C       5.5506593791     5.2079846467    -4.2157982754
  110      H       6.4102970302     5.4685063878    -4.8261395989
  111      C       4.2699470758     5.1382165531    -4.7716538406
  112      H       4.0071512687     5.4612010651    -5.7749525841
  113      C       3.2309569596     4.8583071448    -3.9057703257
  114      H       2.2111760378     4.8687591683    -4.2781768598
  115      C       3.3765508520     4.3916087560    -2.5484037457
  116      H       2.5648591111     3.9410579029    -1.9861053850
  117      C       2.2330205181    -0.8031699396    -1.4410078457
  118      C       3.9913300028    -1.0537267689    -3.0048614294
  119      C       6.2673810012    -4.2728807830    -0.7860283384
  120      C       4.1672711287     0.1796810263     3.1641017680
  121      C       8.6114847408    -1.9891461541     0.6094127398
  122      C       3.0972594461    -0.2061508403    -2.3596499254
  123      C       6.6025405896    -1.0191856646     3.4836237700
  124      C       3.9224183154    -4.0312079627    -1.1284976801
  125      C       7.3231595431     0.9764428649    -1.8548435284
  126      C       5.2875732754     0.9593749010     3.0756678276
  127      C       5.8245523972     2.4676846055    -0.8655712235
  128      C       7.8370288824     1.2692199036    -0.5809051831
  129      C       7.3863614695     0.8230400171     2.1933306382
  130      C       7.5141070244    -1.8708834908     2.8166429249
  131      C       5.0243910640     0.9877736297    -2.6701496631
  132      C       7.1334888098    -3.8142077258     1.3223364997
  133      C       4.5170939145     2.5403674529    -0.2163428202
  134      C       4.2924988331     2.1972456892     1.2376205579
  135      C       7.9496389137    -3.2320802077     0.3233532363
  136      C       3.2720066269    -3.0996935365     2.2837723135
  137      C       4.7937750357    -4.4382948741     1.1604609723
  138      C       3.7361190991    -4.1549659835     0.2710692366
  139      C       3.2501037994    -3.0313405788    -1.7790954101
  140      C       3.0830881552     1.3904013679     1.3636247383
  141      C       6.0975627964     1.6801944144    -2.0591530266
  142      C       4.0536392083    -2.4073704746    -2.7258573421
  143      C       6.5006604203     0.3010537939     3.1854808457
  144      C       5.2057219307    -0.3249814386    -3.1124880488
  145      C       8.5001263845     0.2661329191     0.1167316884
  146      C       2.3670959160    -0.7995882486     2.1766029624
  147      C       5.2088567410    -4.0975174533    -1.6917811155
  148      C       6.9339592992     2.0502303091     0.0834125679
  149      C       2.1667100112    -2.3393016741     0.2907219862
  150      C       8.3983696928     0.0395381008     1.5574587146
  151      C       7.5400002985    -0.2995430675    -2.4050989121
  152      C       5.5676183978    -3.0426267112     3.0263542785
  153      C       5.4054235031    -1.7736079346     3.6182184191
  154      C       8.1974778536    -1.3081009937    -1.7108509923
  155      C       3.0209328829     0.3701899203     2.3511946468
  156      C       5.4190869636     1.8837555358     2.0097533884
  157      C       3.0903514760    -1.8063461634     2.8774851892
  158      C       3.4443255433     1.7181153529    -0.8698208271
  159      C       6.4561516238    -2.3466833301    -2.7836947330
  160      C       6.6787223046     1.7901474916     1.4727260691
  161      C       8.6763702126    -1.0542127143    -0.4512749327
  162      C       1.9859054616    -1.0775108084     0.8348217253
  163      C       7.4744773687    -3.5567574517    -0.9806863311
  164      C       2.3478548634    -2.1809214958    -1.1340587905
  165      C       6.0906411701    -4.4834841452     0.6015592286
  166      C       6.4789324091    -0.9541248983    -3.0355817118
  167      C       7.5868292215    -2.5884228050    -1.9969633962
  168      C       3.7300996002     1.0087069520    -2.1170805872
  169      C       2.5497837714     1.0833961604     0.0696404893
  170      C       4.5233592274    -3.7913016815     2.3673417036
  171      C       5.3108943281    -3.0771441009    -2.6262438234
  172      C       8.4111896497    -1.3427254791     1.8614571429
  173      C       4.1511708628    -1.1400495447     3.4755997639
  174      C       6.8100782007    -3.0699487017     2.4774880409
  175      C       1.9746223231    -0.1705396812    -0.2290988850
  176      C       2.8119932782    -3.3596725377     0.9915085486
 ----------------------------------------------------------------
 Molecular Point Group                 C1    NOp =  1
 Largest Abelian Subgroup              C1    NOp =  1
 Nuclear Repulsion Energy = 34276.7201997668 hartrees
 There are      462 alpha and      462 beta electrons
 Requested basis set is 6-31G(d,p)
 There are 676 shells and 2360 basis functions

 Total QAlloc Memory Limit  20000 MB
 Mega-Array Size      4888 MB
 MEM_STATIC part      5000 MB
 A cutoff of  1.0D-08 yielded  36738 shell pairs
 There are    521233 function pairs
 
 -------------------------------------------------------
 OpenMP Integral Computing Module                       
 Release: version 1.0, May 2013, Q-Chem Inc. Pittsburgh 
 -------------------------------------------------------
 Integral Job Info:
 Integral job number is                      11
 Integral operator is                         1
 short-range coefficients                     0
 long-range coefficients              100000000
 Omega coefficients                           0
 if combine SR and LR in K                    0
 Integral screening is                        0
 Integral computing path is                   2
 max size of driver memory is            800000
 size of driver memory is                593474
 size of scratch memory is              2260544
 max col of scratch BK array               1296
 max len of scratch array in speh3          155
 max len of scratch index in speh4           18
 max int batch size is                      520
 min int batch size is                       52
 fixed nKL is                                52
 max L of basis functions is                  2
 order of int derivative is                   0
 number of shells is                        676
 number of basis is                        2360
 number of cartesian basis is              2360
 number of contracted shell pairs         36738
 number of primitive shell pairs         112161
 maxK2 (contraction) of shell pair           36
 max number of K2 of shell pair               1
 max number of CS2 of shell pair           7129
 max number of PS2 of shell pair          34218
 mem total for path MDJ                 1489064
 -------------------------------------------------------
 Smallest overlap matrix eigenvalue = 2.42E-04

 Scale SEOQF with 1.000000e-02/1.000000e-02/1.000000e-02

 Standard Electronic Orientation quadrupole field applied
 Nucleus-field energy     =     0.0000001350 hartrees
 Guess from superposition of atomic densities
 Warning:  Energy on first SCF cycle will be non-variational
 A restricted hybrid HF-DFT SCF calculation will be
 performed using Pulay DIIS extrapolation
 Exchange:     0.2000 Hartree-Fock + 0.0800 Slater + 0.7200 B88
 Correlation:  0.1900 VWN1RPA + 0.8100 LYP
 Using SG-1 standard quadrature grid
 SCF converges when DIIS error is below 1.0E-05
 using 16 threads for integral computing 
 -------------------------------------------------------
 OpenMP BLAS3 based DFT computing Module                
 Release: version 1.0, May 2013, Q-Chem Inc. Pittsburgh 
 -------------------------------------------------------
 ---------------------------------------
  Cycle       Energy         DIIS Error
 ---------------------------------------
    1   -5858.4008651728      1.83E-02
    2   -5803.0452314108      1.30E-03
    3   -5802.0321963310      1.88E-03
    4   -5803.8039010301      7.40E-04
    5   -5804.1221743787      3.38E-04
    6   -5804.1963183607      1.55E-04
    7   -5804.2115155921      5.96E-05
    8   -5804.2130691621      4.04E-05
    9   -5804.2142853767      1.00E-05
   10   -5804.2142596567      3.31E-06 Convergence criterion met
 ---------------------------------------
 SCF time:  CPU 8812.10 s  wall 911.44 s
 SCF   energy in the final basis set = -5804.2142596567
 Total energy in the final basis set = -5804.2142596567
 
 --------------------------------------------------------------
 
                    Orbital Energies (a.u.)
 --------------------------------------------------------------
 
 Alpha MOs
 -- Occupied --
-19.187 -19.187 -19.145 -19.140 -10.323 -10.321 -10.248 -10.247
-10.245 -10.243 -10.241 -10.239 -10.236 -10.234 -10.234 -10.232
-10.230 -10.230 -10.229 -10.228 -10.227 -10.227 -10.226 -10.225
-10.224 -10.222 -10.221 -10.221 -10.221 -10.221 -10.221 -10.220
-10.220 -10.220 -10.220 -10.219 -10.219 -10.218 -10.218 -10.218
-10.218 -10.217 -10.217 -10.217 -10.217 -10.217 -10.217 -10.217
-10.217 -10.217 -10.216 -10.216 -10.216 -10.216 -10.216 -10.216
-10.216 -10.216 -10.216 -10.216 -10.215 -10.215 -10.215 -10.215
-10.215 -10.215 -10.215 -10.215 -10.215 -10.215 -10.215 -10.215
-10.215 -10.215 -10.215 -10.214 -10.214 -10.214 -10.214 -10.213
-10.213 -10.213 -10.213 -10.213 -10.213 -10.213 -10.213 -10.212
-10.212 -10.212 -10.212 -10.212 -10.212 -10.212 -10.212 -10.212
-10.212 -10.212 -10.211 -10.211 -10.211 -10.211 -10.211 -10.210
-10.210 -10.210 -10.210 -10.210 -10.210 -10.210 -10.210 -10.210
-10.210 -10.210 -10.209 -10.209 -10.209 -10.209 -10.208 -10.208
-10.207 -10.207 -10.207 -10.207 -10.207 -10.207 -10.207 -10.207
-10.206 -10.205 -10.205 -10.205 -10.205 -10.204 -10.204 -10.202
-10.201 -10.201 -10.200 -10.200 -10.199 -10.197 -10.196 -10.194
-10.194 -10.193 -10.192 -10.190  -1.083  -1.070  -1.018  -0.995
 -0.984  -0.982  -0.966  -0.966  -0.965  -0.964  -0.963  -0.957
 -0.937  -0.935  -0.931  -0.928  -0.927  -0.925  -0.925  -0.920
 -0.920  -0.915  -0.901  -0.897  -0.896  -0.889  -0.886  -0.880
 -0.874  -0.871  -0.854  -0.850  -0.842  -0.841  -0.841  -0.837
 -0.836  -0.835  -0.822  -0.817  -0.809  -0.806  -0.800  -0.798
 -0.796  -0.795  -0.794  -0.791  -0.791  -0.787  -0.786  -0.785
 -0.770  -0.770  -0.769  -0.768  -0.767  -0.767  -0.765  -0.763
 -0.748  -0.748  -0.742  -0.741  -0.737  -0.734  -0.717  -0.717
 -0.713  -0.713  -0.712  -0.712  -0.710  -0.710  -0.708  -0.707
 -0.706  -0.706  -0.705  -0.705  -0.704  -0.697  -0.674  -0.674
 -0.660  -0.658  -0.657  -0.655  -0.650  -0.648  -0.633  -0.631
 -0.630  -0.628  -0.626  -0.625  -0.623  -0.621  -0.618  -0.617
 -0.614  -0.613  -0.612  -0.610  -0.609  -0.609  -0.607  -0.607
 -0.606  -0.605  -0.602  -0.601  -0.566  -0.563  -0.562  -0.562
 -0.560  -0.559  -0.558  -0.556  -0.555  -0.553  -0.553  -0.547
 -0.539  -0.538  -0.536  -0.531  -0.529  -0.527  -0.526  -0.525
 -0.523  -0.521  -0.521  -0.519  -0.515  -0.515  -0.513  -0.511
 -0.507  -0.504  -0.502  -0.495  -0.493  -0.492  -0.490  -0.487
 -0.485  -0.483  -0.482  -0.482  -0.480  -0.478  -0.473  -0.473
 -0.472  -0.471  -0.471  -0.469  -0.469  -0.467  -0.467  -0.466
 -0.466  -0.465  -0.464  -0.463  -0.461  -0.460  -0.458  -0.457
 -0.456  -0.455  -0.452  -0.450  -0.448  -0.447  -0.445  -0.445
 -0.444  -0.442  -0.439  -0.439  -0.438  -0.436  -0.435  -0.433
 -0.432  -0.431  -0.430  -0.428  -0.428  -0.427  -0.426  -0.424
 -0.422  -0.422  -0.421  -0.420  -0.419  -0.418  -0.418  -0.417
 -0.417  -0.416  -0.416  -0.414  -0.413  -0.412  -0.412  -0.411
 -0.410  -0.409  -0.408  -0.407  -0.406  -0.401  -0.401  -0.398
 -0.395  -0.394  -0.391  -0.390  -0.388  -0.386  -0.383  -0.380
 -0.378  -0.376  -0.374  -0.370  -0.370  -0.368  -0.367  -0.366
 -0.364  -0.364  -0.362  -0.361  -0.361  -0.359  -0.358  -0.357
 -0.355  -0.354  -0.354  -0.353  -0.351  -0.351  -0.350  -0.349
 -0.349  -0.348  -0.347  -0.346  -0.346  -0.345  -0.344  -0.344
 -0.340  -0.340  -0.339  -0.338  -0.338  -0.337  -0.334  -0.333
 -0.332  -0.331  -0.330  -0.328  -0.327  -0.326  -0.326  -0.321
 -0.315  -0.305  -0.300  -0.291  -0.290  -0.288  -0.275  -0.273
 -0.271  -0.270  -0.269  -0.268  -0.266  -0.265  -0.265  -0.263
 -0.262  -0.260  -0.259  -0.258  -0.257  -0.255  -0.254  -0.253
 -0.249  -0.247  -0.245  -0.239  -0.224  -0.222  -0.213  -0.210
 -0.209  -0.208  -0.205  -0.204  -0.198  -0.196
 -- Virtual --
 -0.125  -0.122  -0.121  -0.119  -0.109  -0.107  -0.079  -0.078
 -0.073  -0.072  -0.061  -0.058  -0.058  -0.052  -0.026  -0.025
 -0.021  -0.020  -0.020  -0.018  -0.017  -0.015  -0.012  -0.011
 -0.009  -0.008  -0.008  -0.005  -0.005  -0.002  -0.001   0.005
  0.006   0.010   0.032   0.037   0.042   0.043   0.047   0.048
  0.049   0.052   0.055   0.059   0.060   0.064   0.065   0.068
  0.069   0.071   0.074   0.081   0.084   0.086   0.088   0.090
  0.093   0.094   0.096   0.098   0.100   0.100   0.103   0.104
  0.105   0.108   0.111   0.113   0.114   0.116   0.117   0.119
  0.123   0.124   0.124   0.127   0.128   0.131   0.132   0.134
  0.139   0.141   0.144   0.146   0.148   0.156   0.157   0.157
  0.158   0.161   0.162   0.164   0.165   0.167   0.167   0.170
  0.171   0.172   0.174   0.175   0.176   0.177   0.180   0.181
  0.183   0.186   0.187   0.188   0.190   0.191   0.192   0.193
  0.194   0.196   0.198   0.201   0.202   0.203   0.205   0.205
  0.207   0.209   0.212   0.212   0.214   0.217   0.219   0.220
  0.221   0.222   0.223   0.224   0.225   0.226   0.228   0.228
  0.229   0.231   0.232   0.233   0.234   0.235   0.239   0.239
  0.241   0.243   0.243   0.246   0.248   0.249   0.254   0.257
  0.259   0.265   0.269   0.270   0.274   0.275   0.277   0.278
  0.283   0.285   0.286   0.286   0.290   0.291   0.298   0.299
  0.301   0.307   0.308   0.310   0.313   0.314   0.316   0.318
  0.320   0.320   0.321   0.324   0.325   0.328   0.331   0.332
  0.334   0.340   0.341   0.342   0.343   0.343   0.349   0.351
  0.355   0.356   0.361   0.366   0.372   0.372   0.384   0.390
  0.393   0.399   0.400   0.400   0.402   0.405   0.406   0.406
  0.409   0.410   0.412   0.412   0.414   0.417   0.422   0.423
  0.425   0.432   0.434   0.436   0.437   0.438   0.441   0.443
  0.447   0.449   0.452   0.453   0.454   0.458   0.459   0.461
  0.463   0.468   0.472   0.472   0.473   0.475   0.476   0.478
  0.479   0.479   0.480   0.481   0.482   0.484   0.484   0.485
  0.486   0.488   0.489   0.491   0.493   0.494   0.494   0.496
  0.497   0.498   0.498   0.500   0.501   0.502   0.502   0.503
  0.504   0.505   0.505   0.507   0.508   0.508   0.509   0.510
  0.511   0.513   0.514   0.515   0.515   0.516   0.517   0.517
  0.518   0.519   0.521   0.522   0.522   0.523   0.524   0.525
  0.525   0.526   0.526   0.528   0.529   0.530   0.531   0.532
  0.533   0.533   0.534   0.535   0.536   0.536   0.537   0.538
  0.540   0.541   0.541   0.542   0.543   0.544   0.545   0.546
  0.546   0.547   0.549   0.549   0.550   0.550   0.550   0.550
  0.551   0.552   0.553   0.554   0.555   0.555   0.555   0.557
  0.558   0.559   0.559   0.560   0.561   0.561   0.562   0.563
  0.565   0.565   0.567   0.567   0.568   0.569   0.571   0.571
  0.572   0.572   0.574   0.574   0.575   0.576   0.577   0.578
  0.579   0.580   0.580   0.581   0.582   0.582   0.584   0.585
  0.586   0.586   0.589   0.589   0.590   0.592   0.592   0.593
  0.594   0.595   0.596   0.597   0.598   0.598   0.599   0.600
  0.601   0.602   0.603   0.604   0.604   0.606   0.607   0.607
  0.610   0.611   0.611   0.612   0.614   0.614   0.615   0.616
  0.618   0.618   0.619   0.620   0.621   0.622   0.623   0.624
  0.625   0.626   0.627   0.628   0.629   0.630   0.632   0.632
  0.633   0.634   0.636   0.636   0.637   0.639   0.639   0.641
  0.642   0.643   0.644   0.645   0.645   0.646   0.647   0.648
  0.651   0.652   0.653   0.654   0.654   0.655   0.656   0.657
  0.658   0.659   0.660   0.661   0.662   0.663   0.664   0.665
  0.666   0.666   0.666   0.668   0.668   0.669   0.669   0.670
  0.671   0.672   0.673   0.673   0.674   0.676   0.677   0.678
  0.679   0.680   0.682   0.683   0.685   0.686   0.686   0.687
  0.690   0.691   0.692   0.694   0.695   0.696   0.698   0.698
  0.699   0.699   0.701   0.702   0.703   0.704   0.704   0.706
  0.707   0.708   0.708   0.710   0.711   0.711   0.713   0.715
  0.716   0.718   0.719   0.720   0.722   0.723   0.724   0.725
  0.726   0.727   0.728   0.730   0.730   0.732   0.733   0.735
  0.735   0.736   0.737   0.738   0.741   0.742   0.744   0.745
  0.746   0.748   0.750   0.752   0.754   0.755   0.757   0.759
  0.759   0.762   0.763   0.766   0.767   0.768   0.770   0.771
  0.771   0.772   0.772   0.773   0.774   0.776   0.777   0.779
  0.781   0.781   0.782   0.784   0.785   0.786   0.788   0.790
  0.792   0.793   0.793   0.794   0.795   0.796   0.797   0.799
  0.800   0.801   0.801   0.803   0.804   0.805   0.806   0.807
  0.808   0.809   0.809   0.810   0.810   0.812   0.812   0.813
  0.814   0.814   0.815   0.815   0.816   0.817   0.817   0.818
  0.819   0.820   0.821   0.822   0.823   0.824   0.825   0.826
  0.827   0.827   0.828   0.829   0.831   0.832   0.834   0.836
  0.839   0.840   0.841   0.842   0.843   0.845   0.847   0.848
  0.851   0.853   0.855   0.856   0.858   0.860   0.861   0.863
  0.866   0.868   0.869   0.876   0.880   0.884   0.886   0.888
  0.890   0.892   0.894   0.897   0.903   0.904   0.906   0.910
  0.911   0.913   0.915   0.918   0.921   0.921   0.923   0.924
  0.924   0.926   0.930   0.931   0.933   0.934   0.935   0.938
  0.939   0.939   0.941   0.941   0.944   0.945   0.948   0.949
  0.953   0.954   0.956   0.958   0.959   0.960   0.967   0.970
  0.971   0.974   0.977   0.979   0.982   0.985   0.987   0.990
  0.992   0.993   0.995   0.996   0.997   1.001   1.003   1.006
  1.007   1.008   1.009   1.011   1.014   1.015   1.016   1.017
  1.020   1.021   1.024   1.024   1.026   1.028   1.028   1.030
  1.030   1.032   1.033   1.035   1.037   1.040   1.044   1.045
  1.046   1.048   1.048   1.051   1.052   1.054   1.056   1.056
  1.058   1.060   1.062   1.063   1.064   1.067   1.070   1.071
  1.073   1.075   1.076   1.079   1.080   1.081   1.083   1.085
  1.086   1.087   1.088   1.089   1.091   1.094   1.095   1.097
  1.099   1.100   1.102   1.105   1.107   1.110   1.111   1.113
  1.117   1.118   1.119   1.120   1.123   1.127   1.127   1.132
  1.134   1.134   1.137   1.138   1.140   1.142   1.142   1.144
  1.147   1.149   1.149   1.152   1.154   1.157   1.158   1.159
  1.160   1.163   1.164   1.166   1.167   1.168   1.170   1.172
  1.174   1.176   1.178   1.179   1.181   1.183   1.184   1.186
  1.189   1.190   1.192   1.193   1.194   1.196   1.198   1.199
  1.204   1.206   1.208   1.209   1.212   1.213   1.215   1.218
  1.220   1.221   1.224   1.229   1.230   1.234   1.235   1.239
  1.243   1.246   1.248   1.250   1.253   1.256   1.258   1.261
  1.263   1.265   1.266   1.267   1.268   1.271   1.272   1.274
  1.278   1.279   1.282   1.283   1.284   1.286   1.289   1.293
  1.293   1.297   1.298   1.299   1.304   1.306   1.312   1.313
  1.314   1.314   1.318   1.321   1.324   1.325   1.328   1.330
  1.333   1.334   1.337   1.339   1.339   1.343   1.346   1.346
  1.348   1.353   1.356   1.357   1.360   1.361   1.364   1.366
  1.371   1.373   1.377   1.378   1.379   1.384   1.385   1.389
  1.389   1.391   1.393   1.396   1.397   1.398   1.400   1.404
  1.406   1.408   1.410   1.416   1.418   1.419   1.422   1.425
  1.429   1.431   1.433   1.440   1.443   1.444   1.445   1.446
  1.447   1.453   1.455   1.455   1.458   1.459   1.460   1.463
  1.464   1.466   1.468   1.470   1.471   1.474   1.476   1.477
  1.479   1.481   1.481   1.484   1.486   1.488   1.492   1.495
  1.496   1.498   1.500   1.503   1.508   1.508   1.512   1.515
  1.517   1.518   1.522   1.524   1.527   1.529   1.532   1.537
  1.539   1.541   1.542   1.543   1.547   1.550   1.550   1.551
  1.554   1.555   1.557   1.559   1.561   1.565   1.567   1.569
  1.574   1.577   1.579   1.582   1.582   1.585   1.587   1.591
  1.593   1.595   1.597   1.601   1.605   1.612   1.614   1.616
  1.618   1.623   1.626   1.629   1.634   1.636   1.639   1.647
  1.648   1.652   1.654   1.660   1.661   1.662   1.668   1.671
  1.675   1.682   1.692   1.692   1.693   1.695   1.697   1.699
  1.702   1.704   1.706   1.708   1.710   1.710   1.714   1.716
  1.718   1.719   1.720   1.724   1.726   1.727   1.729   1.733
  1.734   1.735   1.737   1.738   1.740   1.740   1.742   1.743
  1.746   1.748   1.749   1.751   1.751   1.755   1.755   1.757
  1.759   1.759   1.761   1.762   1.764   1.764   1.765   1.766
  1.768   1.770   1.771   1.771   1.775   1.776   1.776   1.777
  1.778   1.780   1.781   1.782   1.783   1.784   1.786   1.788
  1.789   1.789   1.791   1.792   1.795   1.796   1.797   1.798
  1.799   1.800   1.801   1.802   1.804   1.805   1.806   1.807
  1.808   1.810   1.813   1.815   1.817   1.819   1.820   1.823
  1.824   1.827   1.828   1.829   1.836   1.836   1.838   1.843
  1.843   1.845   1.848   1.850   1.852   1.853   1.855   1.856
  1.857   1.860   1.862   1.863   1.865   1.866   1.868   1.871
  1.872   1.873   1.874   1.877   1.880   1.881   1.882   1.883
  1.885   1.887   1.888   1.892   1.896   1.897   1.898   1.904
  1.906   1.909   1.910   1.914   1.915   1.918   1.922   1.922
  1.924   1.925   1.927   1.930   1.930   1.934   1.936   1.937
  1.939   1.941   1.942   1.946   1.947   1.948   1.949   1.951
  1.952   1.955   1.957   1.961   1.962   1.964   1.966   1.967
  1.969   1.971   1.973   1.975   1.975   1.977   1.978   1.981
  1.983   1.985   1.988   1.989   1.990   1.992   1.993   1.995
  1.996   1.999   2.000   2.001   2.002   2.003   2.004   2.005
  2.006   2.006   2.008   2.009   2.011   2.014   2.016   2.017
  2.019   2.019   2.020   2.022   2.023   2.023   2.025   2.026
  2.026   2.027   2.028   2.030   2.031   2.032   2.034   2.035
  2.036   2.037   2.038   2.040   2.041   2.043   2.045   2.046
  2.047   2.049   2.049   2.050   2.052   2.054   2.054   2.056
  2.058   2.058   2.059   2.061   2.063   2.065   2.066   2.067
  2.068   2.070   2.070   2.072   2.073   2.073   2.075   2.076
  2.077   2.082   2.082   2.083   2.083   2.085   2.087   2.088
  2.092   2.093   2.096   2.096   2.097   2.102   2.104   2.107
  2.108   2.109   2.111   2.113   2.114   2.115   2.118   2.120
  2.121   2.125   2.129   2.134   2.135   2.138   2.139   2.142
  2.146   2.151   2.152   2.156   2.158   2.162   2.165   2.167
  2.175   2.178   2.185   2.188   2.193   2.194   2.197   2.200
  2.204   2.205   2.207   2.208   2.210   2.218   2.221   2.222
  2.223   2.230   2.232   2.234   2.237   2.240   2.241   2.243
  2.244   2.246   2.248   2.250   2.254   2.257   2.259   2.261
  2.263   2.263   2.268   2.269   2.273   2.276   2.279   2.283
  2.284   2.285   2.286   2.288   2.290   2.293   2.295   2.298
  2.299   2.301   2.303   2.308   2.309   2.311   2.312   2.315
  2.316   2.320   2.322   2.327   2.328   2.331   2.332   2.336
  2.338   2.340   2.342   2.344   2.347   2.350   2.350   2.354
  2.356   2.358   2.360   2.362   2.365   2.366   2.367   2.368
  2.369   2.370   2.373   2.374   2.376   2.376   2.377   2.381
  2.382   2.385   2.385   2.388   2.388   2.389   2.391   2.392
  2.395   2.399   2.402   2.403   2.406   2.408   2.410   2.411
  2.413   2.415   2.416   2.417   2.419   2.421   2.421   2.424
  2.427   2.427   2.431   2.434   2.437   2.439   2.441   2.442
  2.445   2.448   2.450   2.454   2.455   2.456   2.459   2.461
  2.462   2.464   2.467   2.468   2.471   2.472   2.474   2.475
  2.476   2.476   2.478   2.480   2.482   2.483   2.488   2.490
  2.493   2.494   2.497   2.499   2.503   2.504   2.506   2.509
  2.512   2.513   2.514   2.516   2.519   2.520   2.522   2.526
  2.527   2.529   2.531   2.531   2.534   2.537   2.538   2.542
  2.544   2.546   2.548   2.551   2.554   2.556   2.560   2.561
  2.566   2.570   2.574   2.575   2.578   2.580   2.583   2.585
  2.588   2.589   2.594   2.595   2.595   2.598   2.600   2.601
  2.604   2.604   2.608   2.610   2.611   2.613   2.613   2.615
  2.617   2.618   2.620   2.623   2.626   2.626   2.629   2.630
  2.632   2.635   2.637   2.638   2.640   2.642   2.643   2.646
  2.647   2.648   2.650   2.652   2.653   2.655   2.658   2.659
  2.660   2.663   2.665   2.666   2.668   2.669   2.671   2.673
  2.674   2.676   2.680   2.683   2.686   2.687   2.690   2.692
  2.697   2.697   2.698   2.700   2.704   2.705   2.707   2.708
  2.712   2.714   2.717   2.719   2.721   2.724   2.725   2.728
  2.729   2.731   2.732   2.734   2.736   2.737   2.738   2.740
  2.745   2.746   2.750   2.751   2.752   2.754   2.756   2.759
  2.761   2.764   2.767   2.769   2.772   2.772   2.776   2.778
  2.779   2.781   2.784   2.786   2.787   2.793   2.794   2.794
  2.795   2.797   2.802   2.805   2.808   2.812   2.814   2.817
  2.820   2.821   2.826   2.827   2.831   2.831   2.834   2.836
  2.840   2.843   2.845   2.847   2.851   2.856   2.858   2.860
  2.861   2.866   2.866   2.867   2.870   2.872   2.872   2.876
  2.877   2.881   2.882   2.884   2.885   2.887   2.888   2.891
  2.894   2.896   2.897   2.899   2.900   2.900   2.902   2.903
  2.905   2.908   2.909   2.913   2.914   2.917   2.919   2.922
  2.923   2.926   2.926   2.927   2.930   2.931   2.935   2.937
  2.939   2.941   2.945   2.946   2.948   2.950   2.954   2.955
  2.961   2.962   2.964   2.966   2.971   2.972   2.976   2.979
  2.985   2.988   2.990   2.991   2.994   2.996   3.001   3.004
  3.006   3.007   3.009   3.010   3.012   3.017   3.019   3.022
  3.023   3.030   3.032   3.035   3.038   3.041   3.044   3.045
  3.047   3.048   3.051   3.055   3.059   3.062   3.067   3.067
  3.070   3.078   3.080   3.084   3.087   3.092   3.097   3.098
  3.113   3.117   3.120   3.128   3.132   3.135   3.141   3.144
  3.150   3.156   3.168   3.173   3.175   3.181   3.184   3.188
  3.189   3.197   3.200   3.214   3.219   3.224   3.231   3.234
  3.240   3.252   3.255   3.267   3.268   3.270   3.274   3.284
  3.295   3.296   3.305   3.312   3.317   3.319   3.327   3.331
  3.337   3.343   3.347   3.351   3.353   3.356   3.372   3.379
  3.396   3.402   3.405   3.414   3.419   3.433   3.438   3.442
  3.446   3.451   3.454   3.461   3.470   3.476   3.479   3.481
  3.488   3.494   3.496   3.504   3.505   3.515   3.528   3.554
  3.556   3.558   3.564   3.568   3.575   3.582   3.589   3.596
  3.618   3.628   3.677   3.685   3.843   3.877   3.971   3.990
  4.063   4.076   4.079   4.085   4.087   4.089   4.092   4.093
  4.100   4.104   4.108   4.110   4.113   4.116   4.119   4.121
  4.126   4.129   4.133   4.141   4.141   4.146   4.147   4.149
  4.150   4.157   4.161   4.162   4.166   4.169   4.172   4.172
  4.181   4.183   4.192   4.199   4.213   4.222   4.233   4.235
  4.236   4.243   4.244   4.249   4.254   4.258   4.262   4.265
  4.269   4.273   4.277   4.280   4.283   4.293   4.293   4.295
  4.306   4.309   4.317   4.334   4.373   4.382   4.387   4.393
  4.395   4.399   4.404   4.405   4.409   4.412   4.414   4.416
  4.421   4.423   4.427   4.429   4.443   4.447   4.456   4.461
  4.475   4.476   4.519   4.524   4.530   4.534   4.549   4.552
  4.561   4.570   4.603   4.604   4.618   4.625   4.631   4.633
  4.640   4.658   4.672   4.681   4.693   4.696   4.700   4.701
  4.703   4.706   4.713   4.718   4.749   4.750   4.798   4.805
  4.832   4.849   4.850   4.864   4.868   4.876   4.887   4.894
  4.907   4.919   4.953   4.955   4.959   4.971   4.974   4.977
  4.983   4.996   4.998   5.013   5.157   5.169   5.186   5.193
  5.200   5.204   5.205   5.214   5.311   5.320   5.335   5.346
  5.352   5.362
 --------------------------------------------------------------
 
          Ground-State Mulliken Net Atomic Charges

     Atom                 Charge (a.u.)
  ----------------------------------------
      1 O                    -0.499681
      2 C                    -0.082466
      3 H                     0.121217
      4 H                     0.130285
      5 H                     0.126500
      6 O                    -0.446001
      7 C                     0.599397
      8 C                    -0.255571
      9 H                     0.133372
     10 H                     0.137045
     11 C                    -0.194568
     12 H                     0.124037
     13 H                     0.113739
     14 C                    -0.191907
     15 H                     0.117189
     16 H                     0.108179
     17 C                     0.031527
     18 C                     0.090039
     19 C                    -0.105219
     20 H                     0.085539
     21 C                    -0.090913
     22 H                     0.088161
     23 C                    -0.070281
     24 H                     0.098474
     25 C                    -0.094763
     26 H                     0.087820
     27 C                    -0.116902
     28 H                     0.090968
     29 C                     0.003312
     30 C                    -0.022072
     31 C                    -0.025991
     32 C                    -0.018087
     33 C                     0.003691
     34 C                    -0.014670
     35 C                    -0.012881
     36 C                     0.003435
     37 C                    -0.010564
     38 C                    -0.023031
     39 C                    -0.111847
     40 C                     0.020925
     41 C                     0.002636
     42 C                     0.010946
     43 C                     0.007934
     44 C                    -0.013082
     45 C                    -0.078711
     46 C                     0.023462
     47 C                     0.004728
     48 C                     0.008300
     49 C                     0.034326
     50 C                    -0.013330
     51 C                    -0.033517
     52 C                     0.011366
     53 C                     0.031892
     54 C                     0.008928
     55 C                    -0.010273
     56 C                    -0.003001
     57 C                    -0.002296
     58 C                     0.009711
     59 C                     0.003169
     60 C                     0.047713
     61 C                     0.020414
     62 C                     0.010130
     63 C                    -0.004920
     64 C                    -0.037632
     65 C                    -0.004079
     66 C                     0.020445
     67 C                    -0.006066
     68 C                     0.016768
     69 C                    -0.005079
     70 C                     0.025163
     71 C                    -0.012422
     72 C                    -0.017820
     73 C                    -0.029418
     74 C                     0.006787
     75 C                    -0.003037
     76 C                     0.009528
     77 C                     0.008466
     78 C                    -0.016419
     79 C                     0.017439
     80 C                     0.021404
     81 C                    -0.006700
     82 C                     0.007562
     83 C                     0.022925
     84 C                    -0.006740
     85 C                     0.005399
     86 C                     0.025520
     87 C                    -0.005059
     88 C                    -0.036125
     89 O                    -0.502384
     90 C                    -0.078891
     91 H                     0.127004
     92 H                     0.125128
     93 H                     0.135677
     94 O                    -0.478998
     95 C                     0.590468
     96 C                    -0.258542
     97 H                     0.140536
     98 H                     0.146178
     99 C                    -0.181231
    100 H                     0.111183
    101 H                     0.140974
    102 C                    -0.194868
    103 H                     0.110913
    104 H                     0.102034
    105 C                     0.004798
    106 C                     0.095785
    107 C                    -0.085522
    108 H                     0.085824
    109 C                    -0.094898
    110 H                     0.088035
    111 C                    -0.071550
    112 H                     0.091537
    113 C                    -0.106859
    114 H                     0.080354
    115 C                    -0.106857
    116 H                     0.101275
    117 C                     0.009072
    118 C                     0.011625
    119 C                     0.028550
    120 C                     0.044158
    121 C                    -0.001213
    122 C                    -0.004128
    123 C                     0.005283
    124 C                     0.007994
    125 C                    -0.002422
    126 C                    -0.021666
    127 C                    -0.073707
    128 C                     0.007891
    129 C                    -0.017609
    130 C                    -0.006287
    131 C                    -0.003957
    132 C                    -0.012758
    133 C                    -0.075445
    134 C                     0.008547
    135 C                    -0.011088
    136 C                     0.000292
    137 C                     0.004232
    138 C                     0.011547
    139 C                    -0.001339
    140 C                    -0.008221
    141 C                     0.039762
    142 C                    -0.004673
    143 C                     0.015010
    144 C                    -0.014991
    145 C                    -0.004499
    146 C                    -0.027490
    147 C                    -0.029525
    148 C                     0.026579
    149 C                    -0.006170
    150 C                    -0.033465
    151 C                     0.005277
    152 C                     0.020355
    153 C                    -0.040504
    154 C                     0.003070
    155 C                     0.001645
    156 C                    -0.012801
    157 C                    -0.002286
    158 C                    -0.000925
    159 C                     0.014775
    160 C                     0.034919
    161 C                     0.008652
    162 C                     0.030267
    163 C                     0.000359
    164 C                    -0.006255
    165 C                    -0.019283
    166 C                    -0.010537
    167 C                    -0.028369
    168 C                     0.013119
    169 C                    -0.022737
    170 C                    -0.027675
    171 C                     0.023522
    172 C                    -0.002779
    173 C                     0.010819
    174 C                     0.025653
    175 C                     0.007894
    176 C                    -0.007943
  ----------------------------------------
  Sum of atomic charges =     0.000000

 -----------------------------------------------------------------
                    Cartesian Multipole Moments
 -----------------------------------------------------------------
    Charge (ESU x 10^10)
                 0.0000
    Dipole Moment (Debye)
         X      -0.8787      Y       3.2293      Z      -0.3909
       Tot       3.3694
    Quadrupole Moments (Debye-Ang)
        XX    -776.3397     XY      13.4223     YY    -807.2990
        XZ       4.1599     YZ      -1.9280     ZZ    -796.3048
    Octopole Moments (Debye-Ang^2)
       XXX    -682.7915    XXY     267.2245    XYY     159.7776
       YYY     360.0483    XXZ     -75.3290    XYZ      65.8892
       YYZ      33.2320    XZZ     -43.4785    YZZ     237.9930
       ZZZ       7.3039
    Hexadecapole Moments (Debye-Ang^3)
      XXXX -139318.3043   XXXY    -646.0618   XXYY  -34479.4206
      XYYY    1507.1901   YYYY  -54292.4034   XXXZ    -253.8351
      XXYZ    -682.0991   XYYZ     616.8197   YYYZ    1072.8570
      XXZZ  -28115.1184   XYZZ     -64.9605   YYZZ  -11921.0864
      XZZZ    -174.5661   YZZZ     173.2146   ZZZZ  -21988.7200
 -----------------------------------------------------------------
Archival summary:
1\1\mn251\SP\ProcedureUnspecified\6-31G**\428\afmv_a\SatOct1307:35:312018SatOct1307:35:312018\0\\#,ProcedureUnspecified,6-31G**,\\0,1\C\C,1,1.3614\C,1,1.37324,2,110.247\C,3,1.38694,1,107.541,2,2.32251,0\C,4,1.37964,3,107.383,1,-2.55815,0\C,5,1.38467,4,117.32,3,141.818,0\C,6,1.37219,5,120.71,4,-138.198,0\C,7,1.37094,6,111.8,5,142.288,0\C,8,1.3872,7,107.253,6,2.82975,0\C,9,1.36268,8,120.099,7,-141.668,0\C,10,1.38062,9,119.581,8,-3.24517,0\C,2,1.39371,1,121.633,3,-142.944,0\C,12,1.40179,2,121.802,1,137.101,0\C,10,1.4021,9,120.711,8,133.859,0\C,14,1.39884,10,107.186,9,-143.018,0\C,15,1.35353,14,109.929,10,1.72842,0\C,16,1.38826,15,122.909,14,145.501,0\C,17,1.35965,16,118.241,15,-138.928,0\C,18,1.38392,17,124.318,16,-1.04327,0\C,12,1.40391,2,119.275,1,-3.44175,0\C,20,1.37228,12,111.072,2,150.175,0\C,20,1.40003,12,119.62,2,1.27278,0\C,22,1.36432,20,124.136,12,139.437,0\C,23,1.33999,22,111.672,20,-141.001,0\C,24,1.4009,23,110.542,22,-2.4633,0\C,21,1.40211,20,116.229,12,-140.033,0\C,26,1.39761,21,116.024,20,131.65,0\C,27,1.39805,26,128.392,21,0.665814,0\C,17,1.40515,16,119.074,15,-1.52169,0\C,29,1.35158,17,106.073,16,-138.354,0\C,11,1.40533,10,120.97,9,-0.605506,0\C,15,1.40869,14,121.029,10,150.461,0\C,14,1.4104,10,123.633,9,4.59716,0\C,33,1.40575,14,119.423,10,-136.919,0\C,34,1.40819,33,105.357,14,137.474,0\C,35,1.38326,34,110.213,33,-2.65627,0\C,36,1.35995,35,107.475,34,0.787897,0\C,37,1.4077,36,120.131,35,-145.511,0\C,30,1.41118,29,111.397,17,-1.27005,0\C,39,1.41014,30,120.281,29,143.234,0\C,35,1.41147,34,117.803,33,-148.249,0\C,41,1.39902,35,120.063,34,139.739,0\C,31,1.41215,11,122.267,10,-1.92026,0\C,26,1.41802,21,123.111,20,-2.43114,0\C,44,1.35751,26,113.056,21,145.258,0\C,32,1.42041,15,118.499,14,-138.667,0\C,46,1.38965,32,106.311,15,135.823,0\C,47,1.36791,46,120.219,32,-145.457,0\C,48,1.385,47,120.358,46,137.022,0\C,49,1.35578,48,110.559,47,-139.117,0\C,50,1.38356,49,108.868,48,0.354416,0\C,51,1.37021,50,106.434,49,4.75342,0\C,47,1.40138,46,111.592,32,-0.98274,0\C,53,1.36616,47,105.536,46,1.82303,0\C,53,1.40226,47,123.855,46,-144.963,0\C,55,1.36212,53,117.758,47,0.2503,0\C,56,1.38307,55,108.327,53,141.102,0\C,1,1.42479,2,121.34,3,147.954,0\C,21,1.49351,20,108.713,12,4.808,0\C,59,1.49475,21,128.078,20,152.116,0\C,60,1.49441,59,116.839,21,-145.677,0\C,61,1.41752,60,127.711,59,45.8257,0\H,62,1.08612,61,121.655,60,-2.57646,0\C,62,1.41787,61,121.945,60,176.956,0\H,64,1.08617,62,113.387,61,175.392,0\C,64,1.40601,62,123.907,61,0.0105482,0\H,66,1.08627,64,124.883,62,177.173,0\C,66,1.38554,64,114.814,62,-2.12874,0\H,68,1.0854,66,117.926,64,-179.459,0\C,68,1.41492,66,122.85,64,1.25061,0\H,70,1.08589,68,115.412,66,-179.044,0\C,59,1.50759,21,117.71,20,-134.307,0\C,60,1.51431,59,115.422,21,-10.971,0\H,73,1.09708,60,109.903,59,-66.6079,0\H,73,1.09777,60,116.453,59,51.1306,0\C,73,1.55569,60,117.356,59,167.539,0\H,76,1.09681,73,111.548,60,56.1498,0\H,76,1.09714,73,110.094,60,167.139,0\C,76,1.51494,73,115.014,60,-72.5495,0\H,79,1.0962,76,110.427,73,-56.974,0\H,79,1.0969,76,112.962,73,62.8201,0\C,79,1.49645,76,116.278,73,174.525,0\O,82,1.2043,79,122.16,76,14.229,0\O,82,1.40998,79,109.713,76,-164.098,0\C,84,1.44285,82,125.63,79,170.797,0\H,85,1.09626,84,113.986,82,149.69,0\H,85,1.09707,84,106.037,82,34.0071,0\H,85,1.09735,84,114.227,82,-89.4012,0\C,58,3.13575,1,87.3027,2,132.044,0\C,89,1.38595,58,101.96,1,69.811,0\C,90,1.39594,89,121.917,58,118.417,0\C,91,1.39612,90,118.742,89,-0.780836,0\C,89,1.39809,58,87.7059,1,-37.1167,0\C,93,1.3913,89,111.493,58,105.809,0\C,94,1.39544,93,119.599,89,137.089,0\C,95,1.3907,94,116.285,93,-138.283,0\C,96,1.3835,95,122.12,94,1.935,0\C,97,1.38974,96,123.411,95,0.705386,0\C,98,1.36931,97,111.57,96,144.239,0\C,95,1.39112,94,122.723,93,-0.33837,0\C,98,1.39762,97,114.486,96,-0.890376,0\C,99,1.40592,98,107.058,97,1.69062,0\C,102,1.38737,99,107.606,98,-3.34448,0\C,103,1.36747,102,122.142,99,-140.902,0\C,104,1.3985,103,121.333,102,0.470799,0\C,102,1.40414,99,115.928,98,-138.061,0\C,100,1.40766,95,109.681,94,-143.856,0\C,107,1.39709,100,104.934,95,6.71751,0\C,105,1.40823,104,117.409,103,3.8225,0\C,93,1.41153,89,114.327,58,-112.689,0\C,106,1.41456,102,123.86,99,-5.04522,0\C,111,1.4129,106,119.864,102,4.18092,0\C,112,1.39581,111,122.322,106,137.131,0\C,112,1.41065,111,116.437,106,1.07404,0\C,104,1.41534,103,124.024,102,141.211,0\C,115,1.39709,104,113.135,103,-143.738,0\C,116,1.38976,115,104.165,104,1.07023,0\C,117,1.37125,116,119.322,115,139.904,0\C,116,1.40639,115,118.983,104,141.573,0\C,119,1.40453,116,119.182,115,-135.915,0\C,120,1.36632,119,108.562,116,142.376,0\C,120,1.39017,119,118.638,116,2.48938,0\C,118,1.4154,117,123.37,116,-140.6,0\C,107,1.41579,100,121.34,95,146.682,0\C,89,1.4223,58,103.393,1,-164.047,0\C,125,1.35143,89,114.878,58,111.044,0\C,126,1.41817,125,110.417,89,133.421,0\C,127,1.35609,126,104.643,125,0.851876,0\C,127,1.36778,126,123.26,125,-151.703,0\C,129,1.38457,127,116.197,126,140.08,0\C,130,1.35731,129,123.07,127,5.7915,0\C,128,1.38818,127,112.161,126,-1.87396,0\C,128,1.4124,127,116.692,126,-146.689,0\C,133,1.40962,128,117.62,127,136.064,0\C,134,1.35857,133,107.036,128,-139.536,0\C,135,1.4117,134,123.415,133,148.879,0\C,131,1.41464,130,122.034,129,-137.529,0\C,137,1.41283,131,120.188,130,-3.76422,0\C,136,1.41525,135,119.528,134,-137.198,0\C,138,1.41536,137,120.302,131,0.463431,0\C,129,1.41702,127,119.77,126,9.39852,0\C,141,1.37253,129,109.573,127,134.355,0\C,142,1.39833,141,108.057,129,0.931953,0\C,141,1.40131,129,119.065,127,-13.884,0\C,126,1.42126,125,123.554,89,-13.2017,0\C,110,1.44418,93,120.341,89,-136.143,0\C,124,1.45579,107,118.44,100,2.49155,0\C,147,1.46158,124,123.976,107,-2.99311,0\C,148,1.51063,147,61.8302,124,116.407,0\C,149,1.47191,148,124.023,147,-101.604,0\C,150,1.37309,149,124.019,148,-38.9692,0\H,151,1.08537,150,122.16,149,2.60929,0\C,150,1.40583,149,114.431,148,135.273,0\H,153,1.08653,150,121.165,149,2.34995,0\C,153,1.37326,150,122.579,149,-172.163,0\H,155,1.08599,153,119.74,150,176.27,0\C,155,1.39788,153,118.963,150,3.32249,0\H,157,1.08627,155,125.035,153,-178.125,0\C,157,1.38116,155,116.746,153,-9.961,0\H,159,1.0857,157,119.314,155,-175.383,0\C,149,1.60235,148,120.962,147,115.529,0\H,161,1.09672,149,105.796,148,-55.4996,0\H,161,1.09794,149,114.556,148,-168.537,0\C,161,1.55053,149,115.154,148,61.6864,0\H,164,1.09694,161,107.051,149,-58.8378,0\H,164,1.0971,161,113.812,149,61.0819,0\C,164,1.56914,161,113.038,149,-177.854,0\H,167,1.09682,164,114.232,161,-33.4913,0\H,167,1.09751,164,111.953,161,96.6477,0\C,167,1.47631,164,114.933,161,-154.208,0\O,170,1.24657,167,125.033,164,17.5167,0\O,170,1.42552,167,113.368,164,-168.712,0\C,172,1.46736,170,116.831,167,176.917,0\H,173,1.09647,172,114.037,170,-175.258,0\H,173,1.09683,172,99.3689,170,-58.7588,0\H,173,1.09747,172,113.891,170,51.3284,0\\\@

 Total job time:  927.37s(wall), 8838.64s(cpu) 
 Sat Oct 13 07:35:31 2018

        *************************************************************
        *                                                           *
        *  Thank you very much for using Q-Chem.  Have a nice day.  *
        *                                                           *
        *************************************************************


