
Running Job 1 of 1 ./8/6.qcin
qchem ./8/6.qcin_37950.0 /tmpu/cab_g/afmv_a/scratch_qchem/qchem37950/ 1
/tmpu/appuserlic/qchem4.4/serial-multicore/exe/qcprog.exe_s ./8/6.qcin_37950.0 /tmpu/cab_g/afmv_a/scratch_qchem/qchem37950/
Check license passed

                  Welcome to Q-Chem
     A Quantum Leap Into The Future Of Chemistry


 Q-Chem 4.4, Q-Chem, Inc., Pleasanton, CA (2016)

 Y. Shao,  Z. Gan,  E. Epifanovsky,  A. T. B. Gilbert,  M. Wormit,  
 J. Kussmann,  A. W. Lange,  A. Behn,  J. Deng,  X. Feng,  D. Ghosh,  
 M. Goldey,  P. R. Horn,  L. D. Jacobson,  I. Kaliman,  F. Rob,  
 R. Z. Khaliullin,  T. Kus,  A. Landau,  J. Liu,  E. I. Proynov,  Y. M. Rhee,  
 R. M. Richard,  M. A. Rohrdanz,  R. P. Steele,  E. J. Sundstrom,  
 H. L. Woodcock III,  P. M. Zimmerman,  D. Zuev,  B. Albrecht,  E. Alguire,  
 B. Austin,  S. A. Baeppler,  G. J. O. Beran,  Y. A. Bernard,  E. Berquist,  
 K. Brandhorst,  K. B. Bravaya,  S. T. Brown,  D. Casanova,  C.-M. Chang,  
 Y. Chen,  S. H. Chien,  K. D. Closser,  M. P. Coons,  D. L. Crittenden,  
 S. Dasgupta,  M. Diedenhofen,  R. A. DiStasio Jr.,  H. Do,  A. D. Dutoi,  
 R. G. Edgar,  P.-T. Fang,  S. Fatehi,  Q. Feng,  L. Fusti-Molnar,  
 A. Ghysels,  A. Golubeva-Zadorozhnaya,  J. Gomes,  A. Gunina,  
 M. W. D. Hanson-Heine,  P. H. P. Harbach,  A. W. Hauser,  J. E. Herr,  
 E. G. Hohenstein,  Z. C. Holden,  K. Hui,  T.-C. Jagau,  H. Ji,  B. Kaduk,  
 K. Khistyaev,  Jaehoon Kim,  Jihan Kim,  R. A. King,  P. Klunzinger,  
 K. Koh,  D. Kosenkov,  T. Kowalczyk,  C. M. Krauter,  A. Kunitsa,  
 K. U. Lao,  A. Laurent,  K. V. Lawler,  J. Lee,  D. Lefrancois,  S. Lehtola,  
 S. V. Levchenko,  C. Y. Lin,  Y.-S. Lin,  F. Liu,  E. Livshits,  
 R. C. Lochan,  A. Luenser,  P. Manohar,  S. F. Manzer,  S.-P. Mao,  Y. Mao,  
 N. Mardirossian,  A. V. Marenich,  L. A. Martinez-Martinez,  S. A. Maurer,  
 N. J. Mayhall,  J.-M. Mewes,  A. F. Morrison,  K. Nanda,  T. S. Nguyen-Beck,  
 C. M. Oana,  R. Olivares-Amaya,  D. P. O'Neill,  J. A. Parkhill,  
 T. M. Perrine,  R. Peverati,  P. A. Pieniazek,  F. Plasser,  A. Prociuk,  
 D. R. Rehn,  E. Rosta,  N. J. Russ,  N. Sergueev,  S. M. Sharada,  
 S. Sharma,  D. W. Small,  A. Sodt,  T. Stauch,  T. Stein,  D. Stuck,  
 Y.-C. Su,  A. J. W. Thom,  T. Tsuchimochi,  L. Vogt,  O. Vydrov,  T. Wang,  
 M. A. Watson,  J. Wenzel,  A. White,  C. F. Williams,  V. Vanovschi,  
 K. Yao,  S. Yeganeh,  S. R. Yost,  Z.-Q. You,  I. Y. Zhang,  X. Zhang,  
 Y. Zhao,  B. R. Brooks,  G. K. L. Chan,  D. M. Chipman,  C. J. Cramer,  
 W. A. Goddard III,  M. S. Gordon,  W. J. Hehre,  A. Klamt,  
 H. F. Schaefer III,  M. W. Schmidt,  C. D. Sherrill,  D. G. Truhlar,  
 A. Warshel,  X. Xu,  A. Aspuru-Guzik,  R. Baer,  A. T. Bell,  N. A. Besley,  
 J.-D. Chai,  A. Dreuw,  B. D. Dunietz,  T. R. Furlani,  S. R. Gwaltney,  
 C.-P. Hsu,  Y. Jung,  J. Kong,  D. S. Lambrecht,  W. Liang,  C. Ochsenfeld,  
 V. A. Rassolov,  L. V. Slipchenko,  J. E. Subotnik,  T. Van Voorhis,  
 J. M. Herbert,  A. I. Krylov,  P. M. W. Gill,  M. Head-Gordon

 Contributors to earlier versions of Q-Chem not listed above: 
 R. D. Adamson,  J. Baker,  E. F. C. Byrd,  A. K. Chakraborty,  C.-L. Cheng,  
 H. Dachsel,  R. J. Doerksen,  G. Hawkins,  A. Heyden,  S. Hirata,  
 G. Kedziora,  F. J. Keil,  C. Kelley,  P. P. Korambath,  W. Kurlancheek,  
 A. M. Lee,  M. S. Lee,  D. Liotard,  I. Lotan,  P. E. Maslen,  N. Nair,  
 D. Neuhauser,  R. Olson,  B. Peters,  J. Ritchie,  N. E. Schultz,  
 N. Shenvi,  A. C. Simmonett,  K. S. Thanthiriwatte,  Q. Wu,  W. Zhang

 Please cite Q-Chem as follows:
 Y. Shao et al., Mol. Phys. 113, 184-215 (2015)
 DOI: 10.1080/00268976.2014.952696

 Q-Chem 4.4.2 for Intel X86 Linux

 Parts of Q-Chem use Armadillo 5.200.1 (Boston Tea Smuggler).
 http://arma.sourceforge.net/

 Q-Chem begins on Sat Oct 13 09:16:33 2018  

Host: 
0

     Scratch files written to /tmpu/cab_g/afmv_a/scratch_qchem/qchem37950//
 Dec716 11556_ 22328  22283 4050   
Processing $rem in /tmpu/appuserlic/qchem4.4/serial-multicore/config/preferences.
 MEM_TOTAL  2000 
FILE_GEOM_ORG=        593

Checking the input file for inconsistencies... 	...done.

--------------------------------------------------------------
User input:
--------------------------------------------------------------
$comment
SP
$end

$rem
MEM_STATIC 5000
MEM_TOTAL 20000
JOBTYPE SP
EXCHANGE B3LYP
BASIS 6-31g(d,p)
$end

$molecule
0 1
O          20.152000      8.682000     -1.185000
C          20.461000     10.071000     -0.668000
H          21.319000     10.531000     -1.174000
H          20.662000     10.194000      0.403000
H          19.558000     10.676000     -0.820000
O          22.127000      7.964000     -0.141000
C          21.126000      7.762000     -0.795000
C          20.832000      6.454000     -1.452000
H          21.733000      6.101000     -1.966000
H          20.128000      6.604000     -2.279000
C          20.255000      5.382000     -0.538000
H          20.953000      5.381000      0.309000
H          19.304000      5.751000     -0.133000
C          20.099000      4.028000     -1.244000
H          19.323000      4.265000     -1.981000
H          20.909000      3.670000     -1.893000
C          19.700000      2.868000     -0.320000
C          20.347000      2.936000      1.045000
C          21.664000      2.375000      1.214000
H          22.292000      2.174000      0.353000
C          22.160000      2.250000      2.524000
H          23.170000      1.875000      2.659000
C          21.428000      2.675000      3.651000
H          21.973000      2.692000      4.589000
C          20.099000      3.102000      3.502000
H          19.507000      3.352000      4.378000
C          19.584000      3.304000      2.211000
H          18.539000      3.581000      2.106000
C          19.488000     -2.535000      0.381000
C          17.681000     -1.727000      1.805000
C          14.296000     -3.214000     -1.059000
C          19.059000     -0.724000     -4.421000
C          13.868000     -0.117000     -2.483000
C          18.965000     -1.559000      1.218000
C          16.360000     -0.392000     -5.032000
C          16.420000     -4.206000     -0.355000
C          16.201000      1.671000      0.293000
C          18.470000      0.567000     -4.420000
C          18.400000      2.152000     -0.508000
C          16.146000      2.172000     -1.001000
C          16.649000      1.570000     -3.720000
C          15.057000     -0.579000     -4.543000
C          18.004000      0.476000      1.277000
C          14.163000     -2.367000     -3.175000
C          19.637000      1.439000     -0.924000
C          19.775000      1.019000     -2.420000
C          13.570000     -1.480000     -2.265000
C          17.847000     -3.924000     -3.570000
C          15.758000     -4.135000     -2.768000
C          16.621000     -4.498000     -1.727000
C          17.443000     -3.771000      0.489000
C          20.338000     -0.272000     -2.450000
C          17.542000      1.572000      0.607000
C          16.912000     -2.893000      1.415000
C          17.147000      0.678000     -4.689000
C          17.077000     -0.468000      1.839000
C          15.108000      1.696000     -1.866000
C          19.759000     -2.484000     -3.222000
C          15.269000     -3.529000     -0.004000
C          17.386000      2.406000     -1.570000
C          18.965000     -3.923000     -1.432000
C          15.350000      1.444000     -3.233000
C          15.288000      0.692000      0.763000
C          16.049000     -2.638000     -4.653000
C          16.942000     -1.663000     -5.112000
C          14.244000      0.291000     -0.126000
C          20.026000     -1.156000     -3.536000
C          18.819000      1.439000     -3.380000
C          18.705000     -2.953000     -4.060000
C          19.897000      0.148000     -0.234000
C          14.967000     -1.469000      1.089000
C          17.660000      2.059000     -2.924000
C          14.205000      0.767000     -1.418000
C          19.863000     -2.992000     -1.893000
C          13.688000     -1.966000     -0.938000
C          18.704000     -3.621000     -0.080000
C          14.645000     -3.374000     -2.391000
C          15.738000     -0.348000      1.516000
C          14.044000     -1.114000      0.148000
C          19.141000     -0.235000      0.918000
C          20.352000     -0.797000     -1.163000
C          16.481000     -3.796000     -3.918000
C          15.584000     -2.719000      1.075000
C          14.541000      0.356000     -3.629000
C          18.298000     -1.827000     -4.754000
C          14.859000     -1.982000     -4.306000
C          20.136000     -2.152000     -0.820000
C          17.920000     -4.380000     -2.224000
O          16.260000      0.764000     -7.605000
C          15.619000      2.003000     -7.368000
H          14.656000      2.045000     -7.891000
H          16.363000      2.800000     -7.491000
H          15.217000      2.173000     -6.362000
O          16.712000      1.278000     -9.747000
C          16.733000      0.500000     -8.832000
C          17.197000     -0.924000     -8.949000
H          17.141000     -1.177000    -10.015000
H          16.381000     -1.506000     -8.501000
C          18.534000     -1.274000     -8.318000
H          18.614000     -0.968000     -7.268000
H          18.624000     -2.352000     -8.136000
C          19.666000     -0.832000     -9.311000
H          19.943000     -1.650000     -9.987000
H          19.370000     -0.022000     -9.990000
C          20.945000     -0.464000     -8.594000
C          21.691000     -1.656000     -8.157000
C          21.361000     -2.478000     -7.007000
H          20.628000     -2.080000     -6.310000
C          22.030000     -3.637000     -6.675000
H          21.696000     -4.205000     -5.811000
C          23.116000     -4.064000     -7.500000
H          23.614000     -5.001000     -7.269000
C          23.603000     -3.278000     -8.494000
H          24.370000     -3.576000     -9.202000
C          22.839000     -2.085000     -8.879000
H          23.286000     -1.534000     -9.702000
C          22.827000      2.924000     -4.671000
C          24.751000      2.562000     -6.125000
C          24.864000      6.661000     -7.907000
C          18.869000      4.601000     -7.449000
C          23.280000      5.772000    -10.886000
C          23.595000      2.089000     -5.508000
C          19.883000      6.041000     -9.563000
C          24.381000      5.977000     -5.632000
C          23.689000      1.847000     -9.820000
C          18.925000      3.960000     -8.748000
C          21.724000      0.785000     -9.018000
C          22.612000      2.333000    -10.515000
C          20.280000      3.880000    -10.553000
C          21.084000      6.530000    -10.119000
C          23.756000      1.168000     -7.546000
C          23.135000      7.398000     -9.139000
C          20.837000      0.844000     -7.781000
C          19.644000      1.866000     -7.710000
C          23.971000      6.554000     -9.945000
C          20.944000      6.825000     -5.758000
C          22.895000      7.551000     -6.723000
C          23.241000      6.816000     -5.588000
C          24.313000      4.681000     -5.091000
C          19.628000      2.508000     -6.498000
C          23.205000      0.996000     -8.818000
C          25.138000      3.849000     -5.865000
C          19.481000      4.725000     -9.795000
C          24.908000      1.932000     -7.361000
C          22.680000      3.623000    -11.091000
C          19.815000      4.718000     -5.431000
C          25.227000      5.870000     -6.754000
C          21.425000      1.760000    -10.021000
C          22.034000      5.123000     -4.408000
C          21.475000      4.357000    -11.154000
C          24.834000      2.689000     -9.664000
C          20.911000      7.498000     -8.120000
C          19.746000      6.679000     -8.340000
C          24.879000      4.008000    -10.243000
C          19.212000      3.874000     -6.347000
C          19.399000      2.634000     -8.847000
C          19.842000      5.983000     -6.009000
C          21.530000      1.199000     -6.525000
C          25.813000      4.025000     -8.181000
C          20.227000      2.577000     -9.966000
C          23.782000      4.446000    -10.973000
C          20.919000      4.272000     -4.678000
C          25.059000      6.185000     -9.213000
C          23.206000      4.248000     -4.418000
C          23.702000      7.389000     -7.848000
C          25.447000      2.686000     -8.428000
C          25.486000      4.813000     -9.304000
C          22.961000      1.236000     -6.415000
C          20.806000      2.113000     -5.772000
C          21.505000      7.556000     -6.855000
C          25.759000      4.609000     -6.876000
C          21.856000      5.663000    -10.966000
C          19.271000      5.946000     -7.285000
C          21.736000      7.489000     -9.273000
C          21.429000      2.961000     -4.914000
C          22.041000      6.448000     -4.928000
$end

--------------------------------------------------------------
 ----------------------------------------------------------------
             Standard Nuclear Orientation (Angstroms)
    I     Atom           X                Y                Z
 ----------------------------------------------------------------
    1      O      -1.5542546777    -7.3088556148    -2.0717099256
    2      C      -2.0898429768    -8.7010445660    -2.3306425388
    3      H      -3.1184869288    -8.8333784470    -1.9726210815
    4      H      -1.5345524005    -9.5551943712    -1.9248698364
    5      H      -2.0379286224    -8.8661901360    -3.4144182723
    6      O      -1.5023128844    -7.8625288692     0.2079464032
    7      C      -1.3179844259    -7.0955594595    -0.7130866819
    8      C      -0.9270898431    -5.6678253596    -0.5188554663
    9      H      -1.5596216406    -5.2261075917     0.2592158279
   10      H      -1.1978864755    -5.0847565442    -1.4069686012
   11      C       0.5501971784    -5.4301131753    -0.2384540157
   12      H       0.7599486331    -6.1313793339     0.5793748796
   13      H       1.1267263425    -5.7998831257    -1.0960502533
   14      C       0.8601019539    -3.9607413661     0.0793407556
   15      H       0.6422743698    -3.4880499510    -0.8853498527
   16      H       0.1862852826    -3.4071795213     0.7464279894
   17      C       2.2973613184    -3.6989966435     0.5529990917
   18      C       2.8478920873    -4.7938860615     1.4387705265
   19      C       2.5689868825    -4.7448141061     2.8521264017
   20      H       1.7647367504    -4.1255312856     3.2339333073
   21      C       3.2615818185    -5.6386303424     3.6882757846
   22      H       3.0225418220    -5.6438232580     4.7474183216
   23      C       4.1830161983    -6.5799151279     3.1867584505
   24      H       4.5245614423    -7.3290016819     3.8934225722
   25      C       4.5515596057    -6.5455510895     1.8325923345
   26      H       5.3216588322    -7.2161776358     1.4617187486
   27      C       3.8415533073    -5.7159194829     0.9492393736
   28      H       4.1701959312    -5.6555629508    -0.0842644314
   29      C       5.6988496135    -0.3109104254     3.1374725695
   30      C       7.1810562352    -1.5361844513     1.6382540757
   31      C       7.7824717101     2.0727187032    -1.2748211804
   32      C       1.7314338464     1.7608489823     0.5898479723
   33      C       5.4277653855     0.9259973776    -3.4980524609
   34      C       6.0281133585    -1.4816565803     2.4684338359
   35      C       2.5504336036     2.4205438064    -1.9912735159
   36      C       7.6698421735     1.9190542560     1.1654160673
   37      C       5.1576162732    -2.6499292824    -1.6310288994
   38      C       1.3656197151     0.9494480540    -0.5153269257
   39      C       3.2204135012    -2.8330509093    -0.2445676161
   40      C       4.0501885643    -2.1115820773    -2.2730944385
   41      C       2.2639648835     0.0828768794    -2.3192338960
   42      C       3.6569204276     2.4497702280    -2.8554099198
   43      C       5.5072561635    -2.7941176614     0.7150426380
   44      C       5.9795149320     2.9410037258    -2.3739035139
   45      C       2.6669123355    -2.2625882509     1.0123344544
   46      C       1.8026567137    -0.9677122162     0.9132472446
   47      C       6.4409817676     1.7958725775    -3.0389155534
   48      C       4.6062948188     3.6621653209     1.3336998191
   49      C       6.3461228398     3.6337757470    -0.0889169563
   50      C       6.7898786947     3.0273802612     1.0924315343
   51      C       7.4810241886     0.8533029552     2.0466719515
   52      C       2.1624012522    -0.1319047473     1.9886819204
   53      C       4.7233537695    -3.0315619802    -0.3770549914
   54      C       7.9257216335    -0.3073504614     1.4421483135
   55      C       1.8146770560     1.2886588797    -1.7475178688
   56      C       6.8620471001    -2.3447869356     0.5448885403
   57      C       4.2539964508    -0.9997765406    -3.1532056781
   58      C       3.0952844561     2.0655046508     2.3426450050
   59      C       8.1533951841     1.4032727968    -0.0205337513
   60      C       2.8979096028    -2.1083347525    -1.5060483840
   61      C       5.4691446351     2.0035015516     2.8585911907
   62      C       3.3352109066     0.0695284198    -3.2095707854
   63      C       6.4611692931    -2.1154431609    -1.7983134179
   64      C       4.1396723061     3.8085822141    -1.0788329836
   65      C       2.8560543617     3.2729590923    -0.9233085668
   66      C       6.6127693888    -1.0393406712    -2.7257177755
   67      C       2.0515543454     1.2914816969     1.8476854886
   68      C       1.4323609181    -0.4405688586    -0.3504524444
   69      C       3.3220264826     3.1567425333     1.4533143932
   70      C       3.6711792670    -1.8648443841     2.0339159473
   71      C       7.9754625739    -0.7496826854    -0.9492832750
   72      C       2.0207868649    -0.9862421912    -1.4869437638
   73      C       5.5113989972    -0.4874730479    -3.3419858884
   74      C       4.2045135127     1.4995434609     3.0386477576
   75      C       7.5300987631     1.2132070298    -2.3422276536
   76      C       6.3616105457     0.9123667174     2.8711757830
   77      C       6.7836710356     3.0339788919    -1.2758517940
   78      C       7.2782340537    -1.9722454305    -0.7198846594
   79      C       7.6347230156    -0.1952881743    -2.1492742248
   80      C       5.0433114535    -2.2462979430     1.9032428998
   81      C       3.2989562942    -0.6412048061     2.6059712258
   82      C       5.0154657982     4.0508888666     0.0356562471
   83      C       8.2965321850     0.0365819247     0.1561972846
   84      C       4.0559750561     1.2542589209    -3.4778126176
   85      C       2.4776212436     2.9046908529     0.3862573456
   86      C       4.6517753599     3.3173189611    -2.2884841228
   87      C       4.3498183041     0.1231222713     3.1643825034
   88      C       5.7160432631     3.0532276921     1.9838031606
   89      O       0.2602154739     3.3760796928    -3.3360846879
   90      C       0.1081402801     2.4495700763    -4.3946800146
   91      H       0.2340254037     2.9474212184    -5.3636790735
   92      H      -0.7779324106     1.8370169007    -4.1860468587
   93      H       0.9089214116     1.7132328217    -4.5328720080
   94      O      -1.6912590589     4.3945806638    -3.7955048876
   95      C      -0.6779294135     4.3173938335    -3.1550712665
   96      C      -0.2561125771     5.3243994488    -2.1231937315
   97      H      -0.8157309825     6.2416042657    -2.3446966985
   98      H       0.7750649782     5.5753733513    -2.4042078765
   99      C      -0.3431038278     4.9048838203    -0.6655692395
  100      H       0.1655674333     3.9567946464    -0.4536341868
  101      H       0.2951661392     5.5286772697    -0.0277595643
  102      C      -1.8342620043     5.0693855747    -0.2048920583
  103      H      -2.0089858680     6.0617464272     0.2281443258
  104      H      -2.5615502335     5.0114022034    -1.0249205702
  105      C      -2.2072882914     4.0925358920     0.8868817675
  106      C      -1.6787144310     4.5068675206     2.1973351148
  107      C      -0.3008240487     4.3625094208     2.6305358000
  108      H       0.3444988092     3.7341891894     2.0220342832
  109      C       0.1796445386     4.8387878927     3.8319411245
  110      H       1.2338226760     4.7104323187     4.0619613438
  111      C      -0.7208777143     5.5125913729     4.7136431956
  112      H      -0.3354175086     5.9307730234     5.6387802324
  113      C      -2.0562696093     5.5481399950     4.4718462098
  114      H      -2.7788719480     6.1070808386     5.0581805798
  115      C      -2.5408378324     5.1007743393     3.1602717334
  116      H      -3.6172645701     5.1931774946     3.0440558346
  117      C      -2.3014384445    -1.3208327982     1.9342461608
  118      C      -4.0973909334    -0.4118756886     3.3109406188
  119      C      -7.4982475172    -2.1200243248     0.9643480396
  120      C      -2.9933058367     0.0883338602    -2.9371957039
  121      C      -8.2240439117     0.8248063051    -0.7604737353
  122      C      -2.8317762774    -0.2933840527     2.7409114311
  123      C      -5.7012734265     0.3319504150    -3.3595160879
  124      C      -5.3520759741    -3.1033807974     1.5154630506
  125      C      -5.6697496726     2.8062034347     1.7413073013
  126      C      -3.5664516662     1.4198206761    -2.9452403985
  127      C      -3.5507585248     3.3589966869     0.8266657674
  128      C      -5.8323034463     3.1270165579     0.4185052713
  129      C      -5.4505030586     2.4693326065    -2.2749232657
  130      C      -6.9574188483     0.1524962757    -2.7426263967
  131      C      -3.8132092227     1.7226336940     2.7491466611
  132      C      -7.8152730098    -1.4949728284    -1.1708895266
  133      C      -2.2834215605     2.6294235006     0.4000523771
  134      C      -2.1471888193     2.0677786131    -1.0624009249
  135      C      -8.3553629731    -0.4943520451    -0.2945740129
  136      C      -4.0900037343    -3.0099744696    -1.7930710538
  137      C      -6.1367110842    -3.2108410151    -0.7755526730
  138      C      -5.1662722767    -3.5262702726     0.1767702263
  139      C      -4.2751689618    -2.5422820140     2.2242369511
  140      C      -1.6542078341     0.7879161469    -1.0454948386
  141      C      -4.2966193350     2.8107281253     2.0187124259
  142      C      -4.7941546562    -1.5700721259     3.0945166662
  143      C      -4.9626492955     1.4942336540    -3.1340918979
  144      C      -4.6862637571     0.8509142082     3.3994588309
  145      C      -6.9297444514     2.5940720581    -0.2971017441
  146      C      -2.1825194396    -1.5401487656    -1.6442924762
  147      C      -6.4952911279    -2.4110660374     1.9624623630
  148      C      -4.5815646428     3.4058666547    -0.1639284750
  149      C      -2.8573551234    -2.9185766483     0.2996849856
  150      C      -6.7276909096     2.3301762845    -1.6697937660
  151      C      -6.5994359531     1.9002462644     2.3406819968
  152      C      -6.0206114192    -1.8680743128    -2.7940106119
  153      C      -5.1357734670    -0.9311715895    -3.4387284458
  154      C      -7.7020515650     1.3528683594     1.5912533868
  155      C      -2.0477867505    -0.2096981778    -2.0003112061
  156      C      -3.1887702609     2.3433080568    -1.9466009172
  157      C      -3.2469313475    -2.0467519420    -2.3828170270
  158      C      -1.9801768009     1.3974229419     1.1576982304
  159      C      -6.8031292820    -0.2326650454     2.9338298470
  160      C      -4.3466564135     3.0013235387    -1.5375663426
  161      C      -7.8528273759     1.7351426245     0.2648725814
  162      C      -2.0156671421    -1.9336991576    -0.3018993148
  163      C      -8.2345267525    -0.9253016366     0.9920533836
  164      C      -3.0180618414    -2.4990559253     1.6916205853
  165      C      -7.2329721177    -2.4705940535    -0.3358207293
  166      C      -6.0813965078     0.9497905437     3.1961018097
  167      C      -7.8029820988     0.0336433673     1.9755103940
  168      C      -2.6701266345     1.0427860699     2.3657677302
  169      C      -1.5707282644     0.3635606562     0.3269987238
  170      C      -5.5048800409    -2.8782040534    -1.9754239930
  171      C      -6.1972478137    -1.5282055822     2.9722923484
  172      C      -7.4799147333     1.2087455552    -1.9201803439
  173      C      -3.7930237026    -1.0480646680    -3.1952164782
  174      C      -7.2249498419    -1.2203280020    -2.4196996710
  175      C      -1.7571713385    -0.9336561097     0.6817727961
  176      C      -3.9034270116    -3.5037725293    -0.4680085636
 ----------------------------------------------------------------
 Molecular Point Group                 C1    NOp =  1
 Largest Abelian Subgroup              C1    NOp =  1
 Nuclear Repulsion Energy = 36237.4974266857 hartrees
 There are      462 alpha and      462 beta electrons
 Requested basis set is 6-31G(d,p)
 There are 676 shells and 2360 basis functions

 Total QAlloc Memory Limit  20000 MB
 Mega-Array Size      4888 MB
 MEM_STATIC part      5000 MB
 A cutoff of  1.0D-08 yielded  40294 shell pairs
 There are    557969 function pairs
 
 -------------------------------------------------------
 OpenMP Integral Computing Module                       
 Release: version 1.0, May 2013, Q-Chem Inc. Pittsburgh 
 -------------------------------------------------------
 Integral Job Info:
 Integral job number is                      11
 Integral operator is                         1
 short-range coefficients                     0
 long-range coefficients              100000000
 Omega coefficients                           0
 if combine SR and LR in K                    0
 Integral screening is                        0
 Integral computing path is                   2
 max size of driver memory is            800000
 size of driver memory is                593474
 size of scratch memory is              2260544
 max col of scratch BK array               1296
 max len of scratch array in speh3          155
 max len of scratch index in speh4           18
 max int batch size is                      520
 min int batch size is                       52
 fixed nKL is                                52
 max L of basis functions is                  2
 order of int derivative is                   0
 number of shells is                        676
 number of basis is                        2360
 number of cartesian basis is              2360
 number of contracted shell pairs         40294
 number of primitive shell pairs         119688
 maxK2 (contraction) of shell pair           36
 max number of K2 of shell pair               1
 max number of CS2 of shell pair           7566
 max number of PS2 of shell pair          35778
 mem total for path MDJ                 1579960
 -------------------------------------------------------
 Smallest overlap matrix eigenvalue = 2.45E-04

 Scale SEOQF with 1.000000e-02/1.000000e-02/1.000000e-02

 Standard Electronic Orientation quadrupole field applied
 Nucleus-field energy     =     0.0000000939 hartrees
 Guess from superposition of atomic densities
 Warning:  Energy on first SCF cycle will be non-variational
 A restricted hybrid HF-DFT SCF calculation will be
 performed using Pulay DIIS extrapolation
 Exchange:     0.2000 Hartree-Fock + 0.0800 Slater + 0.7200 B88
 Correlation:  0.1900 VWN1RPA + 0.8100 LYP
 Using SG-1 standard quadrature grid
 SCF converges when DIIS error is below 1.0E-05
 using 16 threads for integral computing 
 -------------------------------------------------------
 OpenMP BLAS3 based DFT computing Module                
 Release: version 1.0, May 2013, Q-Chem Inc. Pittsburgh 
 -------------------------------------------------------
 ---------------------------------------
  Cycle       Energy         DIIS Error
 ---------------------------------------
    1   -5858.7891736169      1.84E-02
    2   -5803.1016479181      1.29E-03
    3   -5802.4400610098      1.73E-03
    4   -5803.9550459747      6.34E-04
    5   -5804.1470845804      3.35E-04
    6   -5804.2201259075      1.49E-04
    7   -5804.2354595384      5.03E-05
    8   -5804.2366156718      3.26E-05
    9   -5804.2373317860      8.58E-06 Convergence criterion met
 ---------------------------------------
 SCF time:  CPU 8860.43 s  wall 911.13 s
 SCF   energy in the final basis set = -5804.2373317860
 Total energy in the final basis set = -5804.2373317860
 
 --------------------------------------------------------------
 
                    Orbital Energies (a.u.)
 --------------------------------------------------------------
 
 Alpha MOs
 -- Occupied --
-19.197 -19.195 -19.140 -19.133 -10.314 -10.313 -10.245 -10.243
-10.242 -10.241 -10.239 -10.238 -10.237 -10.236 -10.235 -10.228
-10.227 -10.227 -10.227 -10.227 -10.226 -10.224 -10.224 -10.224
-10.223 -10.222 -10.221 -10.221 -10.221 -10.221 -10.221 -10.221
-10.221 -10.220 -10.220 -10.220 -10.219 -10.219 -10.219 -10.219
-10.219 -10.219 -10.219 -10.219 -10.219 -10.218 -10.218 -10.218
-10.218 -10.218 -10.218 -10.218 -10.217 -10.217 -10.217 -10.217
-10.217 -10.217 -10.217 -10.217 -10.217 -10.216 -10.216 -10.216
-10.216 -10.216 -10.216 -10.215 -10.215 -10.215 -10.215 -10.215
-10.215 -10.215 -10.215 -10.215 -10.215 -10.215 -10.215 -10.214
-10.214 -10.214 -10.214 -10.214 -10.214 -10.214 -10.214 -10.214
-10.214 -10.214 -10.214 -10.213 -10.213 -10.213 -10.213 -10.213
-10.213 -10.213 -10.213 -10.213 -10.213 -10.212 -10.212 -10.212
-10.212 -10.212 -10.212 -10.212 -10.212 -10.212 -10.212 -10.212
-10.212 -10.212 -10.212 -10.212 -10.211 -10.211 -10.211 -10.211
-10.211 -10.211 -10.211 -10.210 -10.210 -10.210 -10.210 -10.209
-10.208 -10.208 -10.208 -10.208 -10.206 -10.203 -10.203 -10.202
-10.202 -10.202 -10.201 -10.201 -10.200 -10.200 -10.200 -10.199
-10.198 -10.198 -10.196 -10.190  -1.109  -1.079  -1.020  -1.008
 -0.988  -0.983  -0.971  -0.967  -0.966  -0.965  -0.963  -0.960
 -0.938  -0.933  -0.932  -0.929  -0.928  -0.926  -0.925  -0.924
 -0.922  -0.921  -0.904  -0.897  -0.894  -0.891  -0.889  -0.885
 -0.876  -0.874  -0.849  -0.848  -0.845  -0.845  -0.842  -0.841
 -0.840  -0.836  -0.823  -0.823  -0.809  -0.808  -0.803  -0.800
 -0.798  -0.798  -0.796  -0.794  -0.794  -0.792  -0.788  -0.786
 -0.775  -0.773  -0.771  -0.770  -0.768  -0.767  -0.764  -0.761
 -0.748  -0.747  -0.745  -0.737  -0.734  -0.733  -0.721  -0.719
 -0.716  -0.716  -0.715  -0.714  -0.713  -0.713  -0.712  -0.711
 -0.710  -0.707  -0.706  -0.705  -0.703  -0.700  -0.675  -0.672
 -0.663  -0.661  -0.659  -0.657  -0.649  -0.647  -0.638  -0.635
 -0.629  -0.629  -0.627  -0.625  -0.622  -0.621  -0.620  -0.620
 -0.618  -0.617  -0.616  -0.613  -0.613  -0.612  -0.611  -0.609
 -0.608  -0.605  -0.604  -0.604  -0.571  -0.567  -0.566  -0.563
 -0.563  -0.562  -0.561  -0.560  -0.558  -0.556  -0.554  -0.553
 -0.537  -0.537  -0.534  -0.533  -0.530  -0.529  -0.528  -0.526
 -0.524  -0.524  -0.524  -0.520  -0.520  -0.518  -0.516  -0.513
 -0.507  -0.504  -0.503  -0.500  -0.498  -0.491  -0.489  -0.488
 -0.486  -0.485  -0.483  -0.482  -0.482  -0.480  -0.479  -0.476
 -0.475  -0.473  -0.472  -0.471  -0.471  -0.469  -0.469  -0.468
 -0.466  -0.465  -0.464  -0.464  -0.461  -0.461  -0.460  -0.460
 -0.456  -0.454  -0.452  -0.450  -0.448  -0.446  -0.446  -0.445
 -0.444  -0.443  -0.443  -0.440  -0.439  -0.437  -0.435  -0.434
 -0.433  -0.432  -0.431  -0.430  -0.429  -0.428  -0.428  -0.426
 -0.425  -0.424  -0.423  -0.422  -0.421  -0.420  -0.420  -0.419
 -0.418  -0.418  -0.417  -0.416  -0.415  -0.415  -0.414  -0.413
 -0.412  -0.411  -0.410  -0.408  -0.402  -0.402  -0.398  -0.397
 -0.396  -0.395  -0.393  -0.392  -0.391  -0.389  -0.387  -0.387
 -0.381  -0.380  -0.374  -0.373  -0.371  -0.370  -0.368  -0.368
 -0.366  -0.364  -0.364  -0.363  -0.363  -0.361  -0.360  -0.359
 -0.358  -0.357  -0.357  -0.355  -0.354  -0.354  -0.353  -0.353
 -0.351  -0.351  -0.350  -0.348  -0.347  -0.347  -0.345  -0.344
 -0.343  -0.341  -0.340  -0.339  -0.337  -0.336  -0.336  -0.335
 -0.334  -0.332  -0.331  -0.330  -0.328  -0.327  -0.326  -0.325
 -0.308  -0.306  -0.304  -0.302  -0.289  -0.289  -0.275  -0.273
 -0.272  -0.271  -0.271  -0.269  -0.268  -0.267  -0.267  -0.265
 -0.264  -0.263  -0.261  -0.260  -0.258  -0.255  -0.254  -0.254
 -0.248  -0.246  -0.245  -0.243  -0.224  -0.221  -0.214  -0.212
 -0.211  -0.209  -0.208  -0.206  -0.201  -0.198
 -- Virtual --
 -0.130  -0.125  -0.121  -0.117  -0.110  -0.106  -0.085  -0.079
 -0.075  -0.073  -0.064  -0.057  -0.054  -0.051  -0.026  -0.024
 -0.024  -0.021  -0.019  -0.018  -0.017  -0.016  -0.015  -0.014
 -0.013  -0.012  -0.012  -0.011  -0.009  -0.007   0.004   0.005
  0.009   0.012   0.030   0.037   0.042   0.042   0.045   0.046
  0.047   0.048   0.054   0.055   0.058   0.062   0.065   0.067
  0.069   0.069   0.080   0.082   0.084   0.088   0.089   0.092
  0.095   0.097   0.098   0.099   0.100   0.100   0.104   0.105
  0.109   0.109   0.111   0.112   0.113   0.115   0.118   0.119
  0.120   0.122   0.126   0.127   0.127   0.130   0.132   0.137
  0.139   0.140   0.141   0.146   0.149   0.150   0.152   0.154
  0.156   0.157   0.160   0.160   0.162   0.165   0.168   0.169
  0.170   0.171   0.172   0.176   0.176   0.177   0.179   0.180
  0.181   0.183   0.184   0.186   0.186   0.189   0.190   0.192
  0.194   0.194   0.198   0.199   0.200   0.202   0.204   0.205
  0.208   0.210   0.212   0.212   0.214   0.216   0.217   0.218
  0.220   0.222   0.222   0.224   0.225   0.226   0.227   0.230
  0.231   0.232   0.233   0.234   0.236   0.237   0.238   0.241
  0.242   0.244   0.247   0.247   0.249   0.252   0.256   0.259
  0.264   0.267   0.270   0.272   0.274   0.275   0.279   0.281
  0.285   0.288   0.290   0.292   0.296   0.296   0.302   0.305
  0.309   0.310   0.311   0.314   0.314   0.315   0.318   0.319
  0.320   0.324   0.325   0.326   0.327   0.329   0.330   0.332
  0.332   0.335   0.335   0.342   0.344   0.345   0.347   0.349
  0.351   0.355   0.364   0.366   0.374   0.376   0.382   0.387
  0.391   0.397   0.397   0.401   0.402   0.403   0.405   0.408
  0.410   0.411   0.412   0.415   0.417   0.418   0.419   0.423
  0.426   0.426   0.429   0.434   0.434   0.436   0.439   0.441
  0.444   0.445   0.450   0.451   0.453   0.456   0.458   0.460
  0.461   0.464   0.466   0.471   0.472   0.472   0.473   0.474
  0.476   0.478   0.478   0.480   0.481   0.482   0.482   0.484
  0.487   0.487   0.488   0.489   0.490   0.491   0.492   0.494
  0.496   0.496   0.499   0.499   0.500   0.501   0.502   0.504
  0.505   0.505   0.506   0.507   0.508   0.510   0.511   0.512
  0.512   0.513   0.514   0.514   0.516   0.516   0.517   0.518
  0.519   0.520   0.521   0.522   0.522   0.523   0.524   0.525
  0.526   0.526   0.527   0.528   0.529   0.530   0.531   0.532
  0.533   0.534   0.534   0.536   0.537   0.537   0.538   0.539
  0.540   0.540   0.542   0.542   0.543   0.544   0.545   0.545
  0.546   0.547   0.547   0.548   0.548   0.549   0.550   0.551
  0.552   0.553   0.554   0.554   0.555   0.556   0.556   0.557
  0.558   0.559   0.559   0.560   0.561   0.562   0.562   0.563
  0.565   0.566   0.566   0.568   0.569   0.570   0.571   0.572
  0.572   0.573   0.574   0.575   0.577   0.577   0.578   0.579
  0.580   0.581   0.582   0.582   0.584   0.585   0.587   0.588
  0.588   0.589   0.589   0.590   0.591   0.592   0.593   0.594
  0.594   0.595   0.597   0.598   0.599   0.600   0.601   0.602
  0.603   0.603   0.604   0.605   0.606   0.607   0.608   0.609
  0.610   0.612   0.613   0.614   0.615   0.617   0.617   0.618
  0.618   0.620   0.621   0.622   0.623   0.623   0.624   0.626
  0.628   0.629   0.630   0.630   0.631   0.633   0.634   0.634
  0.635   0.636   0.638   0.638   0.639   0.641   0.642   0.642
  0.643   0.644   0.644   0.646   0.647   0.650   0.651   0.653
  0.654   0.654   0.656   0.656   0.657   0.658   0.659   0.659
  0.660   0.661   0.662   0.662   0.663   0.664   0.665   0.666
  0.666   0.668   0.669   0.669   0.671   0.671   0.672   0.673
  0.675   0.675   0.676   0.677   0.678   0.679   0.680   0.681
  0.682   0.683   0.684   0.686   0.686   0.688   0.689   0.689
  0.690   0.693   0.693   0.694   0.695   0.697   0.697   0.699
  0.700   0.703   0.703   0.705   0.706   0.707   0.707   0.709
  0.710   0.711   0.712   0.713   0.714   0.715   0.716   0.719
  0.719   0.719   0.720   0.722   0.722   0.724   0.725   0.727
  0.728   0.729   0.729   0.730   0.732   0.733   0.734   0.737
  0.737   0.737   0.739   0.741   0.742   0.742   0.745   0.746
  0.748   0.750   0.750   0.751   0.754   0.755   0.755   0.759
  0.761   0.762   0.763   0.764   0.766   0.767   0.767   0.769
  0.770   0.770   0.771   0.773   0.776   0.777   0.778   0.780
  0.781   0.781   0.783   0.785   0.786   0.787   0.788   0.788
  0.790   0.793   0.794   0.795   0.797   0.799   0.801   0.802
  0.802   0.802   0.804   0.805   0.806   0.807   0.807   0.808
  0.808   0.810   0.811   0.811   0.812   0.813   0.814   0.815
  0.816   0.817   0.817   0.818   0.819   0.819   0.820   0.821
  0.821   0.823   0.824   0.824   0.825   0.827   0.828   0.829
  0.831   0.832   0.832   0.834   0.836   0.836   0.840   0.840
  0.844   0.846   0.847   0.849   0.850   0.850   0.854   0.855
  0.858   0.862   0.864   0.865   0.865   0.870   0.874   0.875
  0.879   0.881   0.883   0.885   0.888   0.892   0.896   0.898
  0.900   0.901   0.906   0.909   0.911   0.913   0.916   0.920
  0.921   0.922   0.924   0.926   0.926   0.928   0.929   0.931
  0.934   0.937   0.938   0.938   0.941   0.942   0.944   0.946
  0.946   0.948   0.952   0.956   0.956   0.958   0.961   0.963
  0.966   0.966   0.970   0.972   0.974   0.975   0.979   0.979
  0.981   0.983   0.986   0.989   0.991   0.995   0.996   0.998
  0.998   1.002   1.003   1.005   1.008   1.010   1.012   1.012
  1.013   1.016   1.017   1.017   1.021   1.023   1.024   1.026
  1.028   1.031   1.031   1.032   1.033   1.035   1.038   1.039
  1.039   1.041   1.045   1.046   1.046   1.047   1.050   1.051
  1.052   1.054   1.056   1.058   1.058   1.059   1.063   1.064
  1.066   1.069   1.071   1.073   1.074   1.074   1.077   1.078
  1.081   1.082   1.084   1.085   1.087   1.088   1.089   1.090
  1.092   1.093   1.096   1.097   1.100   1.101   1.102   1.106
  1.107   1.109   1.111   1.111   1.113   1.118   1.119   1.119
  1.122   1.125   1.127   1.128   1.129   1.132   1.136   1.136
  1.140   1.141   1.142   1.144   1.147   1.149   1.150   1.152
  1.153   1.155   1.157   1.157   1.160   1.162   1.163   1.166
  1.166   1.169   1.169   1.170   1.172   1.173   1.174   1.176
  1.179   1.180   1.182   1.183   1.183   1.185   1.189   1.190
  1.195   1.197   1.198   1.201   1.202   1.203   1.205   1.206
  1.208   1.212   1.215   1.217   1.220   1.224   1.226   1.227
  1.230   1.231   1.236   1.238   1.241   1.245   1.248   1.250
  1.252   1.255   1.258   1.258   1.260   1.264   1.265   1.267
  1.269   1.270   1.271   1.274   1.276   1.278   1.278   1.281
  1.284   1.284   1.286   1.290   1.291   1.293   1.294   1.297
  1.298   1.302   1.303   1.305   1.307   1.310   1.311   1.314
  1.319   1.321   1.323   1.327   1.327   1.328   1.329   1.333
  1.336   1.338   1.340   1.341   1.344   1.348   1.349   1.351
  1.353   1.354   1.358   1.358   1.360   1.363   1.365   1.367
  1.369   1.375   1.377   1.380   1.382   1.385   1.388   1.389
  1.391   1.394   1.396   1.398   1.402   1.404   1.408   1.410
  1.411   1.416   1.416   1.418   1.420   1.421   1.430   1.432
  1.435   1.439   1.442   1.442   1.443   1.446   1.446   1.449
  1.452   1.453   1.457   1.458   1.459   1.460   1.463   1.464
  1.467   1.468   1.469   1.471   1.472   1.475   1.477   1.478
  1.482   1.483   1.486   1.488   1.488   1.494   1.495   1.497
  1.499   1.501   1.504   1.507   1.511   1.513   1.515   1.518
  1.519   1.522   1.526   1.527   1.529   1.533   1.535   1.538
  1.540   1.545   1.546   1.549   1.553   1.555   1.558   1.558
  1.560   1.563   1.564   1.567   1.569   1.571   1.573   1.576
  1.577   1.578   1.582   1.584   1.585   1.589   1.590   1.594
  1.598   1.601   1.607   1.610   1.613   1.617   1.619   1.621
  1.624   1.629   1.631   1.637   1.639   1.643   1.644   1.648
  1.649   1.649   1.654   1.660   1.662   1.664   1.668   1.677
  1.678   1.687   1.690   1.691   1.694   1.697   1.698   1.699
  1.702   1.702   1.708   1.709   1.711   1.712   1.715   1.717
  1.720   1.721   1.722   1.726   1.727   1.729   1.731   1.736
  1.737   1.740   1.742   1.743   1.744   1.746   1.746   1.747
  1.749   1.751   1.753   1.754   1.756   1.757   1.759   1.760
  1.762   1.763   1.764   1.766   1.768   1.770   1.772   1.773
  1.774   1.774   1.775   1.776   1.777   1.780   1.781   1.781
  1.783   1.783   1.784   1.788   1.789   1.790   1.792   1.792
  1.793   1.793   1.795   1.797   1.798   1.799   1.800   1.800
  1.801   1.804   1.806   1.807   1.808   1.811   1.812   1.813
  1.816   1.817   1.818   1.819   1.821   1.824   1.825   1.828
  1.829   1.830   1.832   1.834   1.836   1.837   1.838   1.842
  1.844   1.848   1.850   1.851   1.853   1.855   1.856   1.857
  1.859   1.862   1.863   1.865   1.867   1.867   1.871   1.872
  1.873   1.875   1.877   1.879   1.881   1.883   1.884   1.886
  1.888   1.889   1.891   1.893   1.896   1.898   1.900   1.902
  1.903   1.904   1.913   1.914   1.916   1.918   1.920   1.921
  1.924   1.924   1.928   1.930   1.932   1.934   1.936   1.938
  1.939   1.941   1.945   1.946   1.947   1.949   1.952   1.954
  1.956   1.957   1.960   1.961   1.966   1.967   1.968   1.969
  1.971   1.973   1.975   1.978   1.980   1.981   1.982   1.983
  1.986   1.987   1.990   1.991   1.991   1.993   1.995   1.996
  1.998   2.001   2.001   2.003   2.004   2.005   2.006   2.007
  2.009   2.009   2.010   2.012   2.013   2.014   2.016   2.017
  2.017   2.020   2.023   2.025   2.025   2.026   2.028   2.029
  2.031   2.031   2.032   2.033   2.035   2.036   2.037   2.039
  2.041   2.042   2.044   2.044   2.045   2.047   2.048   2.048
  2.052   2.052   2.053   2.054   2.056   2.058   2.059   2.060
  2.060   2.062   2.063   2.066   2.067   2.067   2.069   2.071
  2.071   2.074   2.074   2.075   2.077   2.079   2.081   2.082
  2.084   2.085   2.087   2.089   2.090   2.091   2.092   2.095
  2.097   2.100   2.101   2.103   2.105   2.109   2.110   2.112
  2.115   2.119   2.120   2.123   2.125   2.128   2.129   2.131
  2.136   2.137   2.138   2.143   2.145   2.146   2.150   2.152
  2.153   2.158   2.160   2.161   2.165   2.175   2.177   2.181
  2.187   2.191   2.192   2.196   2.201   2.203   2.204   2.210
  2.214   2.219   2.219   2.222   2.225   2.226   2.231   2.233
  2.236   2.238   2.241   2.244   2.244   2.246   2.247   2.251
  2.252   2.253   2.257   2.259   2.263   2.266   2.268   2.269
  2.270   2.272   2.277   2.279   2.280   2.282   2.286   2.286
  2.289   2.290   2.293   2.295   2.296   2.298   2.299   2.302
  2.305   2.307   2.310   2.313   2.315   2.316   2.321   2.322
  2.324   2.326   2.328   2.330   2.331   2.335   2.336   2.340
  2.343   2.345   2.348   2.349   2.350   2.354   2.356   2.356
  2.359   2.360   2.363   2.364   2.365   2.368   2.369   2.370
  2.373   2.374   2.377   2.378   2.380   2.382   2.383   2.384
  2.385   2.388   2.389   2.391   2.393   2.395   2.397   2.398
  2.400   2.401   2.403   2.404   2.405   2.406   2.407   2.411
  2.413   2.414   2.415   2.417   2.420   2.421   2.423   2.428
  2.428   2.431   2.432   2.434   2.438   2.440   2.443   2.445
  2.448   2.449   2.453   2.456   2.457   2.459   2.461   2.463
  2.465   2.468   2.469   2.471   2.473   2.477   2.478   2.481
  2.482   2.485   2.486   2.488   2.490   2.492   2.495   2.496
  2.498   2.500   2.501   2.502   2.505   2.507   2.509   2.510
  2.511   2.513   2.517   2.517   2.521   2.523   2.525   2.526
  2.527   2.530   2.533   2.534   2.537   2.538   2.540   2.545
  2.546   2.549   2.550   2.553   2.555   2.558   2.561   2.566
  2.570   2.575   2.580   2.583   2.586   2.587   2.588   2.591
  2.593   2.595   2.598   2.602   2.604   2.605   2.607   2.608
  2.611   2.611   2.613   2.614   2.615   2.618   2.619   2.622
  2.624   2.625   2.628   2.629   2.631   2.633   2.634   2.634
  2.638   2.640   2.642   2.643   2.644   2.647   2.651   2.652
  2.655   2.657   2.658   2.661   2.662   2.663   2.665   2.666
  2.669   2.670   2.672   2.672   2.673   2.674   2.677   2.679
  2.681   2.684   2.685   2.687   2.690   2.691   2.692   2.695
  2.697   2.701   2.702   2.704   2.705   2.708   2.713   2.713
  2.716   2.718   2.720   2.722   2.724   2.725   2.726   2.729
  2.733   2.736   2.737   2.739   2.740   2.744   2.746   2.747
  2.750   2.751   2.753   2.754   2.756   2.757   2.761   2.762
  2.765   2.766   2.767   2.770   2.772   2.774   2.777   2.779
  2.782   2.783   2.786   2.787   2.790   2.793   2.795   2.803
  2.805   2.807   2.808   2.810   2.813   2.816   2.817   2.821
  2.825   2.827   2.830   2.832   2.835   2.838   2.841   2.844
  2.848   2.851   2.855   2.859   2.861   2.862   2.863   2.865
  2.869   2.870   2.872   2.875   2.876   2.877   2.879   2.882
  2.883   2.885   2.887   2.890   2.891   2.893   2.895   2.896
  2.897   2.898   2.901   2.904   2.905   2.908   2.909   2.911
  2.911   2.913   2.915   2.916   2.921   2.924   2.925   2.926
  2.928   2.930   2.932   2.933   2.935   2.938   2.940   2.942
  2.943   2.945   2.948   2.950   2.952   2.954   2.958   2.961
  2.964   2.967   2.969   2.974   2.979   2.981   2.983   2.984
  2.988   2.992   2.993   2.994   2.999   3.001   3.002   3.005
  3.008   3.011   3.015   3.016   3.018   3.021   3.023   3.026
  3.028   3.032   3.034   3.038   3.040   3.042   3.044   3.047
  3.050   3.053   3.058   3.058   3.060   3.061   3.065   3.069
  3.071   3.072   3.078   3.088   3.091   3.097   3.098   3.100
  3.107   3.115   3.124   3.128   3.136   3.139   3.142   3.151
  3.153   3.160   3.161   3.166   3.171   3.173   3.177   3.180
  3.191   3.194   3.202   3.222   3.230   3.233   3.239   3.244
  3.249   3.252   3.261   3.274   3.279   3.283   3.292   3.297
  3.306   3.310   3.312   3.317   3.322   3.324   3.329   3.335
  3.340   3.345   3.345   3.352   3.355   3.363   3.387   3.395
  3.397   3.400   3.407   3.419   3.431   3.444   3.448   3.452
  3.458   3.467   3.476   3.480   3.481   3.486   3.493   3.500
  3.505   3.512   3.522   3.535   3.536   3.538   3.547   3.551
  3.555   3.563   3.574   3.585   3.587   3.592   3.607   3.611
  3.612   3.637   3.678   3.690   3.836   3.837   3.998   4.077
  4.081   4.083   4.087   4.089   4.095   4.096   4.096   4.098
  4.103   4.106   4.112   4.113   4.114   4.119   4.122   4.129
  4.130   4.134   4.142   4.143   4.147   4.150   4.154   4.157
  4.157   4.163   4.167   4.173   4.174   4.180   4.188   4.189
  4.194   4.200   4.203   4.207   4.216   4.226   4.238   4.241
  4.243   4.251   4.255   4.257   4.259   4.264   4.268   4.272
  4.280   4.281   4.286   4.289   4.294   4.303   4.305   4.313
  4.322   4.325   4.332   4.378   4.385   4.388   4.391   4.394
  4.397   4.402   4.404   4.407   4.412   4.416   4.418   4.422
  4.427   4.427   4.434   4.443   4.455   4.466   4.475   4.480
  4.491   4.496   4.505   4.536   4.540   4.544   4.551   4.555
  4.558   4.563   4.591   4.626   4.628   4.630   4.636   4.641
  4.661   4.668   4.688   4.691   4.694   4.695   4.704   4.705
  4.707   4.712   4.716   4.742   4.758   4.761   4.802   4.820
  4.842   4.853   4.854   4.863   4.865   4.874   4.881   4.895
  4.909   4.916   4.958   4.963   4.969   4.972   4.975   4.982
  4.992   5.000   5.001   5.010   5.161   5.167   5.171   5.186
  5.204   5.207   5.216   5.242   5.326   5.331   5.332   5.359
  5.363   5.384
 --------------------------------------------------------------
 
          Ground-State Mulliken Net Atomic Charges

     Atom                 Charge (a.u.)
  ----------------------------------------
      1 O                    -0.477016
      2 C                    -0.105010
      3 H                     0.134440
      4 H                     0.136537
      5 H                     0.121853
      6 O                    -0.463840
      7 C                     0.603571
      8 C                    -0.248934
      9 H                     0.132937
     10 H                     0.117455
     11 C                    -0.199123
     12 H                     0.131316
     13 H                     0.108921
     14 C                    -0.186914
     15 H                     0.112522
     16 H                     0.116777
     17 C                     0.019816
     18 C                     0.053987
     19 C                    -0.097775
     20 H                     0.098580
     21 C                    -0.089208
     22 H                     0.089521
     23 C                    -0.078240
     24 H                     0.093389
     25 C                    -0.089436
     26 H                     0.093597
     27 C                    -0.103284
     28 H                     0.091926
     29 C                    -0.010662
     30 C                    -0.019816
     31 C                    -0.016962
     32 C                     0.023421
     33 C                     0.006983
     34 C                    -0.003089
     35 C                     0.066308
     36 C                    -0.008634
     37 C                     0.005031
     38 C                    -0.009810
     39 C                    -0.096323
     40 C                    -0.001547
     41 C                    -0.016450
     42 C                    -0.021257
     43 C                     0.022925
     44 C                     0.024996
     45 C                    -0.094574
     46 C                     0.031172
     47 C                    -0.025431
     48 C                    -0.017094
     49 C                    -0.005198
     50 C                     0.008070
     51 C                     0.012592
     52 C                    -0.006236
     53 C                     0.014302
     54 C                    -0.004251
     55 C                     0.019299
     56 C                    -0.015644
     57 C                    -0.016518
     58 C                    -0.005515
     59 C                    -0.016243
     60 C                     0.037954
     61 C                     0.009138
     62 C                    -0.014715
     63 C                    -0.004802
     64 C                     0.008387
     65 C                    -0.032947
     66 C                    -0.039138
     67 C                    -0.042319
     68 C                    -0.012411
     69 C                     0.005902
     70 C                     0.032827
     71 C                     0.004610
     72 C                     0.024312
     73 C                     0.029986
     74 C                     0.014521
     75 C                    -0.006655
     76 C                    -0.008941
     77 C                     0.030247
     78 C                     0.017392
     79 C                     0.016909
     80 C                     0.036799
     81 C                     0.021355
     82 C                    -0.022458
     83 C                     0.005367
     84 C                    -0.015897
     85 C                    -0.010966
     86 C                    -0.012425
     87 C                    -0.014079
     88 C                     0.002051
     89 O                    -0.453341
     90 C                    -0.092101
     91 H                     0.121801
     92 H                     0.131237
     93 H                     0.118512
     94 O                    -0.473622
     95 C                     0.614040
     96 C                    -0.259844
     97 H                     0.130165
     98 H                     0.119882
     99 C                    -0.188050
    100 H                     0.122332
    101 H                     0.115436
    102 C                    -0.200611
    103 H                     0.117117
    104 H                     0.129306
    105 C                     0.017296
    106 C                     0.102933
    107 C                    -0.108183
    108 H                     0.089921
    109 C                    -0.090913
    110 H                     0.098085
    111 C                    -0.085765
    112 H                     0.087826
    113 C                    -0.080283
    114 H                     0.094764
    115 C                    -0.136622
    116 H                     0.092862
    117 C                    -0.020105
    118 C                     0.020956
    119 C                    -0.003213
    120 C                    -0.019710
    121 C                    -0.025708
    122 C                    -0.015485
    123 C                     0.031962
    124 C                     0.018723
    125 C                    -0.007240
    126 C                    -0.022307
    127 C                    -0.112554
    128 C                     0.012025
    129 C                    -0.009881
    130 C                    -0.014387
    131 C                     0.024712
    132 C                    -0.011128
    133 C                    -0.078870
    134 C                     0.001534
    135 C                     0.033322
    136 C                    -0.001842
    137 C                     0.002820
    138 C                    -0.006470
    139 C                     0.027913
    140 C                     0.009446
    141 C                     0.012288
    142 C                     0.002968
    143 C                     0.012095
    144 C                    -0.009744
    145 C                     0.006157
    146 C                    -0.022439
    147 C                    -0.002040
    148 C                     0.045629
    149 C                    -0.022533
    150 C                    -0.002698
    151 C                    -0.012417
    152 C                    -0.003016
    153 C                    -0.013479
    154 C                    -0.002552
    155 C                     0.001687
    156 C                     0.052811
    157 C                     0.002919
    158 C                     0.038197
    159 C                     0.015119
    160 C                    -0.017532
    161 C                     0.006993
    162 C                     0.002948
    163 C                    -0.026476
    164 C                    -0.027540
    165 C                     0.030096
    166 C                    -0.009695
    167 C                     0.003285
    168 C                    -0.005407
    169 C                     0.012913
    170 C                     0.005183
    171 C                    -0.031677
    172 C                    -0.002573
    173 C                     0.012690
    174 C                    -0.020814
    175 C                     0.019006
    176 C                    -0.021259
  ----------------------------------------
  Sum of atomic charges =     0.000000

 -----------------------------------------------------------------
                    Cartesian Multipole Moments
 -----------------------------------------------------------------
    Charge (ESU x 10^10)
                 0.0000
    Dipole Moment (Debye)
         X       1.9711      Y       0.0158      Z       0.4550
       Tot       2.0230
    Quadrupole Moments (Debye-Ang)
        XX    -823.1767     XY      -7.6221     YY    -789.2832
        XZ      -3.5420     YZ      22.0380     ZZ    -800.3997
    Octopole Moments (Debye-Ang^2)
       XXX     -13.9993    XXY     -90.8290    XYY      51.1669
       YYY    -110.6603    XXZ      22.3085    XYZ    -100.8009
       YYZ     -52.2626    XZZ      38.3282    YZZ     -59.1520
       ZZZ      14.5714
    Hexadecapole Moments (Debye-Ang^3)
      XXXX -113338.2284   XXXY    -328.7616   XXYY  -25983.0833
      XYYY    -418.0967   YYYY  -44841.6686   XXXZ      57.6284
      XXYZ     144.5115   XYYZ     259.5304   YYYZ    1477.7344
      XXZZ  -22708.1617   XYZZ      33.9826   YYZZ  -11035.0955
      XZZZ       8.7702   YZZZ     173.5281   ZZZZ  -22792.4900
 -----------------------------------------------------------------
Archival summary:
1\1\mn251\SP\ProcedureUnspecified\6-31G**\428\afmv_a\SatOct1309:32:022018SatOct1309:32:022018\0\\#,ProcedureUnspecified,6-31G**,\\0,1\O\C,1,1.34125\O,2,1.20123,1,124.277\C,1,1.41498,2,119.034,3,-3.92291,0\H,4,1.0966,1,117.095,2,-178.16,0\H,4,1.09666,1,110.576,2,-69.2774,0\H,4,1.09721,1,108.065,2,65.1587,0\C,2,1.50225,1,111.515,3,175.673,0\H,8,1.09704,2,106.172,1,-155.674,0\H,8,1.09785,2,103.955,1,-46.6715,0\C,8,1.51929,2,117.248,1,76.5647,0\H,11,1.0966,8,113.428,2,-52.324,0\H,11,1.09695,8,111.562,2,-159.745,0\C,11,1.56934,8,107.884,2,80.7843,0\H,14,1.09674,11,111.231,8,91.7366,0\H,14,1.09761,11,113.875,8,-25.0245,0\C,14,1.51174,11,112.255,8,-150.837,0\C,17,1.47253,14,111.859,11,-77.1286,0\C,18,1.4224,17,120.158,14,-103.081,0\H,19,1.08662,18,124.3,17,-6.31726,0\C,18,1.45158,17,125.334,14,77.0435,0\H,21,1.08697,18,116.999,17,12.2705,0\C,21,1.37879,18,123.812,17,-175.679,0\H,23,1.08659,21,118.798,18,178.275,0\C,23,1.42911,21,118.742,18,-0.181116,0\H,25,1.08597,23,118.913,21,177.087,0\C,25,1.35757,23,121.486,21,-8.1843,0\H,27,1.08552,25,124.895,23,174.912,0\C,17,1.53187,14,119.831,11,136.584,0\C,29,1.4304,17,130.057,14,-1.90212,0\C,30,1.4076,29,110.322,17,152.108,0\C,31,1.37082,30,109.894,29,4.07097,0\C,32,1.40088,31,107.852,30,2.79857,0\C,33,1.39684,32,116.12,31,133.934,0\C,34,1.38413,33,121.572,32,-133.086,0\C,34,1.39464,33,120.936,32,13.2589,0\C,36,1.39615,34,105.768,33,-145.181,0\C,37,1.36885,36,124.099,34,141.243,0\C,37,1.39311,36,109.402,34,-5.8777,0\C,38,1.40425,37,119.713,36,-139.087,0\C,40,1.36597,38,124.047,37,-8.84658,0\C,41,1.40022,40,115.472,38,7.53103,0\C,40,1.40603,38,107.796,37,142.462,0\C,38,1.40903,37,119.699,36,1.20685,0\C,44,1.37406,38,105.109,37,-139.862,0\C,36,1.41334,34,120.472,33,-8.0094,0\C,46,1.37966,36,120.534,34,-0.697757,0\C,46,1.40992,36,118.255,34,-133.009,0\C,48,1.41032,46,109.326,36,141.903,0\C,49,1.37775,48,108.565,46,-1.94272,0\C,50,1.38858,49,121.47,48,-139.175,0\C,51,1.38046,50,119.179,49,132.571,0\C,52,1.41236,51,112.028,50,-146.969,0\C,53,1.37337,52,104.561,51,4.5534,0\C,43,1.41614,40,119.683,38,-146.493,0\C,55,1.39577,43,119.096,40,135.934,0\C,56,1.39396,55,116.844,43,-0.895113,0\C,57,1.37248,56,125.908,55,5.72824,0\C,56,1.39626,55,108.998,43,-141.021,0\C,59,1.39872,56,120.539,55,143.36,0\C,58,1.40365,57,109.724,56,-151.939,0\C,61,1.36225,58,107.286,57,3.57731,0\C,62,1.40516,61,127.003,58,137.773,0\C,57,1.41005,56,120.356,55,-143.556,0\C,64,1.40835,57,119.142,56,3.91831,0\C,55,1.41811,43,122.814,40,-4.83571,0\C,42,1.41944,41,105.835,40,132.629,0\C,67,1.35772,42,122.945,41,-147.455,0\C,68,1.38801,67,120.982,42,3.70182,0\C,53,1.42012,52,121.634,51,144.07,0\C,70,1.38816,53,120.728,52,-134.73,0\C,71,1.39545,70,119.936,53,3.13551,0\C,72,1.3862,71,123.522,70,138.756,0\C,73,1.36965,72,117.875,71,-4.41425,0\C,74,1.39842,73,123.166,72,-134.765,0\C,75,1.39106,74,110.313,73,142.589,0\C,76,1.38384,75,106.741,74,0.423456,0\C,77,1.36403,76,108.619,75,0.496557,0\C,76,1.40881,75,119.655,74,-140.355,0\C,75,1.40939,74,119.839,73,-1.30025,0\C,71,1.41088,70,107.577,53,145.271,0\C,72,1.41091,71,120.435,70,-1.41864,0\C,81,1.41165,71,108.963,70,-0.84499,0\C,83,1.3932,81,107.117,71,0.997516,0\C,83,1.39378,81,121.292,71,-145.509,0\C,85,1.37163,83,117.443,81,10.8056,0\C,66,1.4234,55,114.566,43,4.96953,0\C,69,1.47777,68,112.004,67,153.194,0\H,87,2.64773,66,89.6366,55,-118.376,0\C,89,1.09572,87,130.175,66,-80.9348,0\H,90,1.09638,89,102.606,87,17.0324,0\C,90,1.49297,89,109.072,87,133.414,0\O,92,1.21265,90,123.081,89,45.9637,0\O,92,1.39541,90,108.492,89,-127.983,0\C,94,1.51397,92,111.529,90,174.318,0\H,95,1.09662,94,118.283,92,52.3105,0\H,95,1.09718,94,112.754,92,-70.7751,0\H,95,1.09751,94,106.889,92,167.745,0\C,90,1.52234,89,111.497,87,-98.1122,0\H,99,1.09754,90,108.253,89,174.227,0\H,99,1.09755,90,102.881,89,-74.4653,0\C,99,1.53496,90,112.553,89,49.6,0\H,102,1.09614,99,100.981,90,66.5585,0\H,102,1.09794,99,118.982,90,-43.0104,0\C,102,1.53577,99,114.579,90,-172.19,0\C,105,1.49599,102,120.775,99,-117.063,0\C,106,1.48714,105,62.729,102,-106.131,0\C,107,1.48674,106,115.592,105,-120.199,0\C,108,1.4011,107,109.557,106,-138.283,0\C,109,1.39003,108,110.848,107,3.91425,0\C,110,1.40874,109,109.295,108,4.26013,0\C,109,1.41433,108,115.835,107,155.521,0\C,112,1.38977,109,114.95,108,-145.43,0\C,113,1.3732,112,106.203,109,144.99,0\C,114,1.38857,113,121.587,112,-141.588,0\C,115,1.39583,114,121.675,113,134.751,0\C,116,1.40008,115,106.677,114,-143.101,0\C,117,1.40001,116,115.515,115,140.405,0\C,118,1.3642,117,121.828,116,-142.622,0\C,119,1.38268,118,119.853,117,6.86575,0\C,118,1.38623,117,121.442,116,11.677,0\C,121,1.39349,118,107.257,117,-149.542,0\C,117,1.40005,116,110.806,115,-0.325869,0\C,119,1.40233,118,104.086,117,151.818,0\C,120,1.40244,119,119.951,118,-0.779442,0\C,125,1.39956,120,107.259,119,140.156,0\C,126,1.4002,125,110.391,120,-1.58214,0\C,127,1.37183,126,118.936,125,-143.432,0\C,128,1.35463,127,123.095,126,0.0667221,0\C,129,1.40135,128,109.853,127,142.884,0\C,130,1.39126,129,108.245,128,-3.75556,0\C,131,1.37654,130,105.308,129,1.38882,0\C,132,1.393,131,120.988,130,-149.877,0\C,127,1.40424,126,106.541,125,1.52687,0\C,134,1.40566,127,118.586,126,-141.34,0\C,114,1.40969,113,107.326,112,-0.338905,0\C,136,1.39154,114,122.47,113,-142.983,0\C,137,1.38214,136,123.616,114,141.857,0\C,138,1.38183,137,106.521,136,-138.643,0\C,139,1.38548,138,109.664,137,-3.08824,0\C,140,1.3807,139,107.164,138,0.778353,0\C,139,1.39405,138,122.397,137,137.206,0\C,142,1.36508,139,121.704,138,-142.59,0\C,135,1.41066,134,118.707,127,134.561,0\C,133,1.41094,132,118.849,131,6.43409,0\C,145,1.37082,133,107.973,132,140.291,0\C,146,1.37745,145,121.472,133,-147.089,0\C,126,1.41202,125,116.659,120,-142.088,0\C,148,1.3808,126,119.843,125,141.395,0\C,149,1.38019,148,106.903,126,-151.173,0\C,148,1.38389,126,120.27,125,-4.15799,0\C,151,1.38532,148,124.439,126,5.69606,0\C,150,1.39049,149,108.011,148,6.43938,0\C,136,1.41654,114,111.956,113,3.42824,0\C,154,1.38805,136,121.788,114,-139.758,0\C,155,1.36892,154,119.966,136,130.498,0\C,156,1.38823,155,109.474,154,-143.688,0\C,157,1.36512,156,124.157,155,146.876,0\C,158,1.38083,157,119.857,156,-133.477,0\C,159,1.38869,158,106.035,157,138.354,0\C,160,1.38424,159,114.113,158,-0.329461,0\C,159,1.41877,158,120.01,157,-5.29484,0\C,162,1.36055,159,119.865,158,0.412067,0\C,163,1.38262,162,121.061,159,-0.246328,0\C,164,1.3968,163,119.427,162,139.229,0\C,105,1.5121,102,113.453,99,37.2694,0\C,166,1.44123,105,121.016,102,-106.733,0\H,167,1.08618,166,119.752,105,2.79372,0\C,167,1.40453,166,120.85,105,-166.669,0\H,169,1.08643,167,120.547,166,178.051,0\C,169,1.40384,167,119.237,166,-7.07264,0\H,171,1.08497,169,124.231,167,-166.609,0\C,171,1.40946,169,119.901,167,10.1317,0\H,173,1.08579,171,119.197,169,176.946,0\C,173,1.40632,171,122.334,169,-7.36345,0\H,175,1.08448,173,121.254,171,-171.268,0\\\@

 Total job time:  928.59s(wall), 8886.58s(cpu) 
 Sat Oct 13 09:32:02 2018

        *************************************************************
        *                                                           *
        *  Thank you very much for using Q-Chem.  Have a nice day.  *
        *                                                           *
        *************************************************************


