
Running Job 1 of 1 C169_3/C169_210.qcin
qchem C169_3/C169_210.qcin_53959.0 /tmpu/cab_g/afmv_a/scratch_qchem/qchem53959/ 1
/tmpu/appuserlic/qchem4.4/serial-multicore/exe/qcprog.exe_s C169_3/C169_210.qcin_53959.0 /tmpu/cab_g/afmv_a/scratch_qchem/qchem53959/
Check license passed

                  Welcome to Q-Chem
     A Quantum Leap Into The Future Of Chemistry


 Q-Chem 4.4, Q-Chem, Inc., Pleasanton, CA (2016)

 Y. Shao,  Z. Gan,  E. Epifanovsky,  A. T. B. Gilbert,  M. Wormit,  
 J. Kussmann,  A. W. Lange,  A. Behn,  J. Deng,  X. Feng,  D. Ghosh,  
 M. Goldey,  P. R. Horn,  L. D. Jacobson,  I. Kaliman,  F. Rob,  
 R. Z. Khaliullin,  T. Kus,  A. Landau,  J. Liu,  E. I. Proynov,  Y. M. Rhee,  
 R. M. Richard,  M. A. Rohrdanz,  R. P. Steele,  E. J. Sundstrom,  
 H. L. Woodcock III,  P. M. Zimmerman,  D. Zuev,  B. Albrecht,  E. Alguire,  
 B. Austin,  S. A. Baeppler,  G. J. O. Beran,  Y. A. Bernard,  E. Berquist,  
 K. Brandhorst,  K. B. Bravaya,  S. T. Brown,  D. Casanova,  C.-M. Chang,  
 Y. Chen,  S. H. Chien,  K. D. Closser,  M. P. Coons,  D. L. Crittenden,  
 S. Dasgupta,  M. Diedenhofen,  R. A. DiStasio Jr.,  H. Do,  A. D. Dutoi,  
 R. G. Edgar,  P.-T. Fang,  S. Fatehi,  Q. Feng,  L. Fusti-Molnar,  
 A. Ghysels,  A. Golubeva-Zadorozhnaya,  J. Gomes,  A. Gunina,  
 M. W. D. Hanson-Heine,  P. H. P. Harbach,  A. W. Hauser,  J. E. Herr,  
 E. G. Hohenstein,  Z. C. Holden,  K. Hui,  T.-C. Jagau,  H. Ji,  B. Kaduk,  
 K. Khistyaev,  Jaehoon Kim,  Jihan Kim,  R. A. King,  P. Klunzinger,  
 K. Koh,  D. Kosenkov,  T. Kowalczyk,  C. M. Krauter,  A. Kunitsa,  
 K. U. Lao,  A. Laurent,  K. V. Lawler,  J. Lee,  D. Lefrancois,  S. Lehtola,  
 S. V. Levchenko,  C. Y. Lin,  Y.-S. Lin,  F. Liu,  E. Livshits,  
 R. C. Lochan,  A. Luenser,  P. Manohar,  S. F. Manzer,  S.-P. Mao,  Y. Mao,  
 N. Mardirossian,  A. V. Marenich,  L. A. Martinez-Martinez,  S. A. Maurer,  
 N. J. Mayhall,  J.-M. Mewes,  A. F. Morrison,  K. Nanda,  T. S. Nguyen-Beck,  
 C. M. Oana,  R. Olivares-Amaya,  D. P. O'Neill,  J. A. Parkhill,  
 T. M. Perrine,  R. Peverati,  P. A. Pieniazek,  F. Plasser,  A. Prociuk,  
 D. R. Rehn,  E. Rosta,  N. J. Russ,  N. Sergueev,  S. M. Sharada,  
 S. Sharma,  D. W. Small,  A. Sodt,  T. Stauch,  T. Stein,  D. Stuck,  
 Y.-C. Su,  A. J. W. Thom,  T. Tsuchimochi,  L. Vogt,  O. Vydrov,  T. Wang,  
 M. A. Watson,  J. Wenzel,  A. White,  C. F. Williams,  V. Vanovschi,  
 K. Yao,  S. Yeganeh,  S. R. Yost,  Z.-Q. You,  I. Y. Zhang,  X. Zhang,  
 Y. Zhao,  B. R. Brooks,  G. K. L. Chan,  D. M. Chipman,  C. J. Cramer,  
 W. A. Goddard III,  M. S. Gordon,  W. J. Hehre,  A. Klamt,  
 H. F. Schaefer III,  M. W. Schmidt,  C. D. Sherrill,  D. G. Truhlar,  
 A. Warshel,  X. Xu,  A. Aspuru-Guzik,  R. Baer,  A. T. Bell,  N. A. Besley,  
 J.-D. Chai,  A. Dreuw,  B. D. Dunietz,  T. R. Furlani,  S. R. Gwaltney,  
 C.-P. Hsu,  Y. Jung,  J. Kong,  D. S. Lambrecht,  W. Liang,  C. Ochsenfeld,  
 V. A. Rassolov,  L. V. Slipchenko,  J. E. Subotnik,  T. Van Voorhis,  
 J. M. Herbert,  A. I. Krylov,  P. M. W. Gill,  M. Head-Gordon

 Contributors to earlier versions of Q-Chem not listed above: 
 R. D. Adamson,  J. Baker,  E. F. C. Byrd,  A. K. Chakraborty,  C.-L. Cheng,  
 H. Dachsel,  R. J. Doerksen,  G. Hawkins,  A. Heyden,  S. Hirata,  
 G. Kedziora,  F. J. Keil,  C. Kelley,  P. P. Korambath,  W. Kurlancheek,  
 A. M. Lee,  M. S. Lee,  D. Liotard,  I. Lotan,  P. E. Maslen,  N. Nair,  
 D. Neuhauser,  R. Olson,  B. Peters,  J. Ritchie,  N. E. Schultz,  
 N. Shenvi,  A. C. Simmonett,  K. S. Thanthiriwatte,  Q. Wu,  W. Zhang

 Please cite Q-Chem as follows:
 Y. Shao et al., Mol. Phys. 113, 184-215 (2015)
 DOI: 10.1080/00268976.2014.952696

 Q-Chem 4.4.2 for Intel X86 Linux

 Parts of Q-Chem use Armadillo 5.200.1 (Boston Tea Smuggler).
 http://arma.sourceforge.net/

 Q-Chem begins on Sun Jun 18 15:45:56 2017  

Host: 
0

     Scratch files written to /tmpu/cab_g/afmv_a/scratch_qchem/qchem53959//
 Dec716 11556_ 22328  22283 4050   
Processing $rem in /tmpu/appuserlic/qchem4.4/serial-multicore/config/preferences.
 MEM_TOTAL  2000 
FILE_GEOM_ORG=        593

Checking the input file for inconsistencies... 	...done.

--------------------------------------------------------------
User input:
--------------------------------------------------------------
$comment
OPTIMIZATION
$end

$rem
JOBTYPE OPT
EXCHANGE omegaB97X-D
BASIS cc-pVTZ
$end

$molecule
0 1
C          0.00000        0.00000        0.00000
C         -0.65396       -1.22126       -0.00000
C          1.38563        0.00000        0.00000
C          0.09526       -2.37957        0.00866
N          2.11912       -1.10562        0.01199
C          1.48546       -2.27640        0.02149
C          2.30642       -3.51253        0.03449
N          1.74513       -4.60745       -0.39909
C          3.65824       -3.56714        0.50995
C          2.40434       -5.79109       -0.42442
N          4.38617       -2.58332        1.04242
C          4.35289       -4.81920        0.47143
C          3.70163       -5.99343       -0.01477
S          5.80914       -3.21778        1.41887
N          5.59255       -4.74484        0.95148
C          4.33823       -7.30129       -0.04468
S          6.02589       -7.51949        0.20234
C          3.75434       -8.55173       -0.24928
C          5.99762       -9.21427        0.01351
N          2.43078       -8.79033       -0.46746
C          4.69159       -9.63209       -0.21260
C          7.19111      -10.02404        0.10954
C          2.09912      -10.03238       -0.63993
N          4.30733      -10.92364       -0.39820
C          7.45821      -11.20486       -0.52720
S          8.53039       -9.55756        1.10837
C          3.03978      -11.10696       -0.60697
C          8.72909      -11.73553       -0.20081
C          9.41716      -10.95699        0.67575
H         -0.54853        0.93120        0.00000
H         -1.73532       -1.26909       -0.00410
H          1.93662        0.93286       -0.01167
H         -0.36319       -3.35650        0.00329
H          1.82722       -6.62671       -0.78554
H          1.05088      -10.24576       -0.82054
H          6.75947      -11.65868       -1.20957
H          2.69937      -12.12548       -0.75876
H          9.10789      -12.66337       -0.60165
H         10.39851      -11.12756        1.08419
$end

$opt
CONSTRAINT
tors 4 6 7 8 21.82164
tors 10 13 16 17 169.06444
tors 17 19 22 25 -150.00000
ENDCONSTRAINT
$end
--------------------------------------------------------------
 ----------------------------------------------------------------
             Standard Nuclear Orientation (Angstroms)
    I     Atom           X                Y                Z
 ----------------------------------------------------------------
    1      C       7.6824233678     0.3467709521    -0.1306104628
    2      C       6.9957944883     1.4990003019     0.2158689400
    3      C       6.9457222918    -0.7794372311    -0.4606061441
    4      C       5.6164989639     1.4762970550     0.2266429318
    5      N       5.6194343287    -0.8170833765    -0.4511229355
    6      C       4.9648215215     0.2902851246    -0.1082554254
    7      C       3.4815013509     0.2475895321    -0.0982526079
    8      N       2.8500471204     1.3837428294    -0.2091991113
    9      C       2.7193285807    -0.9587642346     0.0441027010
   10      C       1.4969542873     1.4567498340    -0.2056151014
   11      N       3.1686741093    -2.2020497420     0.2275091379
   12      C       1.2893685881    -0.8760318812     0.0372884674
   13      C       0.6382686784     0.3885391582    -0.0902854897
   14      S       1.8769969456    -3.1433318563     0.3485702831
   15      N       0.6960837599    -2.0580805596     0.1906128373
   16      C      -0.8080356473     0.5443619935    -0.0663065613
   17      S      -1.8886613324    -0.7867647867    -0.1973638772
   18      C      -1.5578385245     1.7127280206     0.0719155704
   19      C      -3.3101037041     0.1513517026    -0.1069523365
   20      N      -1.0575021400     2.9718795961     0.2152486032
   21      C      -2.9709210196     1.4896018738     0.0525946190
   22      C      -4.6299012908    -0.4344670067    -0.1726665975
   23      C      -1.9341135422     3.9218260586     0.3228897979
   24      N      -3.8615668904     2.5111973925     0.1679074075
   25      C      -5.7757366093     0.1298958526    -0.6622297657
   26      S      -4.9409945563    -2.0444955525     0.3929878370
   27      C      -3.3441357195     3.6940498780     0.2982880758
   28      C      -6.8989440590    -0.7262683619    -0.5691442236
   29      C      -6.6002350481    -1.9307981680    -0.0143441125
   30      H       8.7627224491     0.3193208765    -0.1454087533
   31      H       7.5301908184     2.4033818617     0.4769408170
   32      H       7.4427741534    -1.6980726776    -0.7487073621
   33      H       5.0328214922     2.3469686284     0.4832536966
   34      H       1.0939525058     2.4533480465    -0.2838295507
   35      H      -1.5585760960     4.9336882269     0.4327291031
   36      H      -5.7926127481     1.1227658609    -1.0790550763
   37      H      -4.0266588785     4.5316105954     0.3929260422
   38      H      -7.8885200554    -0.4484393336    -0.8986887418
   39      H      -7.2640442930    -2.7580226598     0.1701067146
 ----------------------------------------------------------------
 Molecular Point Group                 C1    NOp =  1
 Largest Abelian Subgroup              C1    NOp =  1
 Nuclear Repulsion Energy =  2929.7743958174 hartrees
 There are      110 alpha and      110 beta electrons
 Requested basis set is cc-pVTZ
 There are 356 shells and 1022 basis functions

 Total QAlloc Memory Limit   2000 MB
 Mega-Array Size        61 MB
 MEM_STATIC part        62 MB
 A cutoff of  1.0D-11 yielded  30926 shell pairs
 There are    243968 function pairs (    318432 Cartesian)
 
 -------------------------------------------------------
 OpenMP Integral Computing Module                       
 Release: version 1.0, May 2013, Q-Chem Inc. Pittsburgh 
 -------------------------------------------------------
 Integral Job Info:
 Integral job number is                      11
 Integral operator is                         1
 short-range coefficients              22203600
 long-range coefficients              100000000
 Omega coefficients                         200
 if combine SR and LR in K                    1
 Integral screening is                        0
 Integral computing path is                   2
 max size of driver memory is            800000
 size of driver memory is                776718
 size of scratch memory is             26248924
 max col of scratch BK array              10000
 max len of scratch array in speh3          662
 max len of scratch index in speh4           32
 max int batch size is                      520
 min int batch size is                       52
 fixed nKL is                                52
 max L of basis functions is                  3
 order of int derivative is                   0
 number of shells is                        356
 number of basis is                        1177
 number of cartesian basis is              1177
 number of contracted shell pairs         30926
 number of primitive shell pairs          93721
 maxK2 (contraction) of shell pair          121
 max number of K2 of shell pair               1
 max number of CS2 of shell pair           4268
 max number of PS2 of shell pair          13027
 mem total for path MDJ                  837060
 -------------------------------------------------------
 Smallest overlap matrix eigenvalue = 2.63E-05

 Scale SEOQF with 1.000000e-02/1.000000e-01/1.000000e+00

 Standard Electronic Orientation quadrupole field applied
 Nucleus-field energy     =     0.0000000487 hartrees
 Guess from superposition of atomic densities
 Warning:  Energy on first SCF cycle will be non-variational
 Long-range K will be added via erf
 Coulomb attenuation parameter = 0.2 bohr**(-1)
 A restricted hybrid HF-DFT SCF calculation will be
 performed using Pulay DIIS extrapolation
 Exchange:     0.2220 Hartree-Fock + 1.0000 wB97X-D + LR-HF
 Correlation:  1.0000 wB97X-D
 Using SG-2 standard quadrature grid
 Dispersion:   Grimme D
 SCF converges when DIIS error is below 1.0E-08
 using 16 threads for integral computing 
 using 16 threads for integral computing 
 K construction time:  CPU 71.05 s  wall 4.72 s
 -------------------------------------------------------
 OpenMP BLAS3 based DFT computing Module                
 Release: version 1.0, May 2013, Q-Chem Inc. Pittsburgh 
 -------------------------------------------------------
 ---------------------------------------
  Cycle       Energy         DIIS Error
 ---------------------------------------
    1   -2301.4523069652      1.83E-02
 K construction time:  CPU 1129.46 s  wall 74.69 s
    2   -2290.9007755650      1.33E-03
 K construction time:  CPU 1080.08 s  wall 71.31 s
    3   -2290.9333141262      1.34E-03
 K construction time:  CPU 1025.84 s  wall 67.92 s
    4   -2291.1428624943      2.15E-04
 K construction time:  CPU 948.19 s  wall 62.79 s
    5   -2291.1473681362      1.40E-04
 K construction time:  CPU 901.33 s  wall 59.57 s
    6   -2291.1496073727      4.90E-05
 K construction time:  CPU 853.18 s  wall 56.34 s
    7   -2291.1499150759      1.79E-05
 K construction time:  CPU 792.12 s  wall 52.49 s
    8   -2291.1499690604      5.66E-06
 K construction time:  CPU 763.46 s  wall 50.48 s
    9   -2291.1499810736      3.78E-06
 K construction time:  CPU 723.63 s  wall 47.81 s
   10   -2291.1499851180      1.33E-06
 K construction time:  CPU 656.52 s  wall 43.32 s
   11   -2291.1499856893      7.39E-07
 K construction time:  CPU 615.86 s  wall 40.67 s
   12   -2291.1499858559      2.12E-07
 K construction time:  CPU 543.64 s  wall 35.82 s
   13   -2291.1499858715      1.21E-07
 K construction time:  CPU 482.06 s  wall 31.74 s
   14   -2291.1499858734      3.34E-08
 K construction time:  CPU 412.12 s  wall 26.97 s
   15   -2291.1499858728      1.69E-08
 K construction time:  CPU 1121.74 s  wall 74.17 s
   16   -2291.1499858751      5.44E-09 Convergence criterion met
 ---------------------------------------
 SCF time:  CPU 16123.99 s  wall 1093.42 s
 SCF   energy in the final basis set = -2291.1499858751
 Total energy in the final basis set = -2291.1499858751
 
 --------------------------------------------------------------
 
                    Orbital Energies (a.u.)
 --------------------------------------------------------------
 
 Alpha MOs
 -- Occupied --
-89.146 -89.099 -89.080 -14.482 -14.479 -14.462 -14.462 -14.445
-14.434 -10.355 -10.352 -10.350 -10.345 -10.343 -10.343 -10.342
-10.341 -10.338 -10.336 -10.334 -10.330 -10.326 -10.323 -10.320
-10.309 -10.301 -10.298 -10.295 -10.294  -8.156  -8.114  -8.095
 -6.106  -6.100  -6.100  -6.063  -6.059  -6.058  -6.044  -6.041
 -6.038  -1.143  -1.101  -1.068  -1.048  -1.029  -1.013  -1.003
 -0.986  -0.925  -0.911  -0.896  -0.879  -0.869  -0.853  -0.839
 -0.812  -0.777  -0.772  -0.748  -0.738  -0.731  -0.716  -0.711
 -0.672  -0.656  -0.648  -0.629  -0.628  -0.620  -0.608  -0.603
 -0.586  -0.576  -0.567  -0.561  -0.557  -0.548  -0.543  -0.526
 -0.512  -0.507  -0.501  -0.498  -0.493  -0.492  -0.486  -0.482
 -0.474  -0.466  -0.464  -0.461  -0.450  -0.442  -0.429  -0.426
 -0.419  -0.412  -0.393  -0.376  -0.372  -0.359  -0.358  -0.349
 -0.343  -0.339  -0.334  -0.334  -0.321  -0.265
 -- Virtual --
 -0.055  -0.024   0.024   0.033   0.042   0.051   0.070   0.075
  0.085   0.089   0.117   0.121   0.124   0.126   0.130   0.135
  0.151   0.154   0.156   0.164   0.169   0.175   0.182   0.189
  0.199   0.205   0.209   0.216   0.225   0.231   0.244   0.248
  0.258   0.264   0.267   0.277   0.282   0.288   0.292   0.295
  0.301   0.304   0.306   0.315   0.317   0.323   0.324   0.331
  0.335   0.340   0.343   0.346   0.348   0.351   0.355   0.362
  0.366   0.368   0.370   0.376   0.383   0.384   0.387   0.389
  0.390   0.392   0.397   0.399   0.404   0.407   0.411   0.412
  0.414   0.418   0.421   0.428   0.431   0.433   0.434   0.440
  0.443   0.447   0.449   0.457   0.459   0.460   0.463   0.464
  0.467   0.474   0.475   0.477   0.483   0.485   0.489   0.491
  0.495   0.499   0.503   0.507   0.512   0.514   0.518   0.521
  0.526   0.531   0.532   0.537   0.539   0.542   0.549   0.554
  0.558   0.562   0.569   0.574   0.581   0.584   0.594   0.601
  0.603   0.608   0.611   0.614   0.621   0.627   0.633   0.639
  0.640   0.645   0.652   0.657   0.660   0.665   0.669   0.673
  0.675   0.687   0.692   0.696   0.699   0.710   0.712   0.715
  0.723   0.726   0.729   0.732   0.741   0.745   0.747   0.753
  0.762   0.766   0.769   0.770   0.777   0.781   0.782   0.788
  0.796   0.796   0.803   0.808   0.814   0.816   0.823   0.826
  0.828   0.835   0.839   0.841   0.843   0.849   0.853   0.858
  0.863   0.866   0.870   0.876   0.881   0.885   0.895   0.907
  0.911   0.913   0.923   0.923   0.925   0.930   0.936   0.940
  0.946   0.949   0.954   0.955   0.962   0.963   0.969   0.972
  0.981   0.983   0.987   0.995   0.998   1.003   1.008   1.021
  1.025   1.030   1.037   1.044   1.048   1.051   1.055   1.057
  1.060   1.067   1.077   1.081   1.085   1.092   1.094   1.100
  1.102   1.106   1.111   1.118   1.123   1.134   1.137   1.145
  1.151   1.159   1.160   1.166   1.175   1.182   1.186   1.193
  1.198   1.210   1.214   1.220   1.228   1.237   1.241   1.241
  1.252   1.263   1.266   1.269   1.277   1.291   1.296   1.300
  1.302   1.314   1.322   1.328   1.340   1.343   1.351   1.354
  1.360   1.368   1.373   1.375   1.377   1.380   1.388   1.390
  1.396   1.402   1.407   1.419   1.425   1.429   1.433   1.438
  1.444   1.447   1.452   1.460   1.467   1.477   1.480   1.483
  1.489   1.495   1.505   1.509   1.512   1.513   1.519   1.532
  1.548   1.553   1.561   1.570   1.579   1.586   1.589   1.594
  1.605   1.614   1.619   1.622   1.626   1.641   1.644   1.647
  1.654   1.658   1.666   1.672   1.682   1.685   1.696   1.700
  1.710   1.713   1.723   1.726   1.729   1.737   1.743   1.747
  1.753   1.762   1.779   1.780   1.790   1.800   1.804   1.808
  1.813   1.835   1.842   1.853   1.863   1.872   1.883   1.887
  1.895   1.899   1.907   1.916   1.929   1.936   1.942   1.949
  1.960   1.972   1.973   1.981   1.987   1.990   2.000   2.008
  2.014   2.023   2.028   2.039   2.044   2.053   2.056   2.064
  2.076   2.090   2.100   2.105   2.110   2.117   2.120   2.130
  2.142   2.156   2.164   2.176   2.178   2.183   2.190   2.199
  2.202   2.210   2.217   2.221   2.235   2.238   2.245   2.257
  2.263   2.279   2.289   2.292   2.295   2.297   2.311   2.312
  2.320   2.327   2.339   2.345   2.350   2.368   2.372   2.376
  2.381   2.390   2.398   2.399   2.405   2.413   2.417   2.429
  2.436   2.440   2.449   2.458   2.460   2.464   2.475   2.479
  2.486   2.497   2.506   2.521   2.525   2.528   2.531   2.534
  2.538   2.542   2.549   2.550   2.558   2.562   2.589   2.597
  2.609   2.618   2.626   2.631   2.636   2.647   2.653   2.658
  2.660   2.669   2.672   2.680   2.691   2.697   2.716   2.722
  2.728   2.734   2.743   2.757   2.765   2.772   2.774   2.779
  2.782   2.784   2.790   2.799   2.806   2.814   2.815   2.825
  2.830   2.838   2.846   2.851   2.866   2.870   2.877   2.878
  2.884   2.892   2.896   2.908   2.917   2.921   2.923   2.933
  2.940   2.943   2.950   2.952   2.952   2.970   2.972   2.979
  2.987   2.994   2.999   3.004   3.008   3.011   3.015   3.018
  3.023   3.024   3.037   3.040   3.049   3.053   3.059   3.060
  3.063   3.069   3.070   3.077   3.080   3.082   3.084   3.088
  3.092   3.095   3.104   3.105   3.118   3.121   3.123   3.133
  3.138   3.147   3.149   3.152   3.160   3.163   3.166   3.172
  3.175   3.180   3.181   3.192   3.194   3.199   3.202   3.208
  3.215   3.217   3.220   3.224   3.227   3.230   3.234   3.240
  3.245   3.247   3.251   3.258   3.261   3.262   3.264   3.271
  3.277   3.284   3.291   3.293   3.296   3.301   3.301   3.308
  3.309   3.315   3.320   3.323   3.327   3.335   3.341   3.344
  3.350   3.354   3.360   3.372   3.381   3.386   3.388   3.391
  3.397   3.400   3.403   3.412   3.417   3.420   3.426   3.436
  3.438   3.444   3.449   3.457   3.466   3.472   3.474   3.475
  3.482   3.489   3.494   3.498   3.498   3.513   3.515   3.519
  3.526   3.532   3.535   3.549   3.564   3.568   3.571   3.583
  3.587   3.594   3.612   3.617   3.623   3.632   3.637   3.648
  3.654   3.669   3.674   3.682   3.691   3.694   3.702   3.706
  3.712   3.716   3.732   3.734   3.738   3.748   3.750   3.759
  3.770   3.773   3.780   3.788   3.789   3.794   3.800   3.814
  3.816   3.831   3.832   3.845   3.851   3.857   3.875   3.879
  3.886   3.896   3.905   3.914   3.915   3.921   3.927   3.931
  3.934   3.936   3.941   3.953   3.955   3.960   3.970   3.981
  3.984   3.993   3.997   4.004   4.018   4.026   4.028   4.037
  4.047   4.054   4.069   4.074   4.079   4.088   4.095   4.103
  4.113   4.117   4.121   4.139   4.149   4.157   4.169   4.172
  4.186   4.191   4.200   4.203   4.209   4.215   4.220   4.222
  4.233   4.234   4.237   4.248   4.255   4.262   4.270   4.283
  4.286   4.289   4.306   4.315   4.321   4.325   4.329   4.336
  4.345   4.351   4.360   4.364   4.370   4.385   4.385   4.394
  4.406   4.411   4.424   4.430   4.439   4.443   4.447   4.448
  4.463   4.481   4.497   4.501   4.517   4.524   4.529   4.534
  4.545   4.554   4.562   4.571   4.583   4.593   4.595   4.609
  4.626   4.638   4.639   4.648   4.663   4.672   4.680   4.694
  4.713   4.721   4.731   4.735   4.759   4.770   4.776   4.792
  4.796   4.807   4.811   4.816   4.824   4.844   4.844   4.866
  4.874   4.880   4.886   4.888   4.904   4.916   4.918   4.934
  4.938   4.948   4.951   4.969   4.974   4.982   4.987   4.992
  5.001   5.004   5.007   5.013   5.030   5.044   5.047   5.054
  5.071   5.080   5.098   5.100   5.104   5.115   5.117   5.125
  5.135   5.144   5.149   5.158   5.169   5.176   5.184   5.192
  5.212   5.218   5.242   5.249   5.267   5.302   5.308   5.316
  5.322   5.343   5.351   5.378   5.383   5.403   5.422   5.428
  5.452   5.466   5.478   5.491   5.495   5.500   5.526   5.543
  5.564   5.568   5.576   5.590   5.599   5.610   5.627   5.649
  5.674   5.695   5.721   5.722   5.747   5.753   5.757   5.791
  5.798   5.827   5.840   5.857   5.878   5.897   5.913   5.926
  5.951   5.971   6.016   6.043   6.088   6.131   6.134   6.182
  6.202   6.241   6.251   6.295   6.309   6.354   6.384   6.424
  6.446   6.491   6.634   6.874   6.989   7.079   8.069   8.905
  9.816  10.181  10.664  11.140  11.295  11.663  12.017  12.126
 12.408  12.640  12.771  12.845  12.853  12.972  13.063  13.185
 13.328  13.430  13.526  14.155  14.316  14.660  15.067  15.100
 --------------------------------------------------------------
 
          Ground-State Mulliken Net Atomic Charges

     Atom                 Charge (a.u.)
  ----------------------------------------
      1 C                    -0.092892
      2 C                    -0.129424
      3 C                    -0.080093
      4 C                    -0.117642
      5 N                    -0.145214
      6 C                     0.081995
      7 C                     0.098851
      8 N                    -0.177331
      9 C                    -0.017342
     10 C                    -0.084152
     11 N                    -0.217890
     12 C                     0.051716
     13 C                     0.059800
     14 S                     0.405220
     15 N                    -0.305749
     16 C                    -0.070530
     17 S                     0.184837
     18 C                     0.055354
     19 C                    -0.061804
     20 N                    -0.169378
     21 C                     0.057600
     22 C                    -0.010165
     23 C                    -0.047355
     24 N                    -0.155989
     25 C                    -0.140470
     26 S                     0.105791
     27 C                    -0.046543
     28 C                    -0.154652
     29 C                    -0.182366
     30 H                     0.132936
     31 H                     0.119861
     32 H                     0.119887
     33 H                     0.138049
     34 H                     0.137934
     35 H                     0.128303
     36 H                     0.133447
     37 H                     0.129489
     38 H                     0.130327
     39 H                     0.135583
  ----------------------------------------
  Sum of atomic charges =     0.000000

 -----------------------------------------------------------------
                    Cartesian Multipole Moments
 -----------------------------------------------------------------
    Charge (ESU x 10^10)
                 0.0000
    Dipole Moment (Debye)
         X      -0.3445      Y       1.5133      Z       0.3677
       Tot       1.5950
    Quadrupole Moments (Debye-Ang)
        XX    -151.9097     XY       3.2871     YY    -165.0015
        XZ       4.7074     YZ       0.4431     ZZ    -186.5244
    Octopole Moments (Debye-Ang^2)
       XXX     105.8800    XXY      13.5251    XYY     -39.6793
       YYY      35.9044    XXZ     -11.1154    XYZ      15.0451
       YYZ      15.2465    XZZ       0.7975    YZZ      -5.2744
       ZZZ       3.6819
    Hexadecapole Moments (Debye-Ang^3)
      XXXX  -15972.8667   XXXY     569.3771   XXYY   -3545.7585
      XYYY    -161.9936   YYYY   -3438.4531   XXXZ     172.8011
      XXYZ      17.4730   XYYZ     -16.0430   YYYZ      23.1484
      XXZZ   -3441.5496   XYZZ     -35.3797   YYZZ    -723.0494
      XZZZ      -7.5756   YZZZ      -8.2690   ZZZZ    -305.7266
 -----------------------------------------------------------------
 Calculating analytic gradient of the SCF energy
 K construction time:  CPU 2958.72 s  wall 187.45 s
 Gradient of SCF Energy
            1           2           3           4           5           6
    1   0.0000680  -0.0012317   0.0005182   0.0013481   0.0001709  -0.0010349
    2  -0.0000403  -0.0005574  -0.0001900   0.0000022  -0.0003111   0.0000975
    3  -0.0000283  -0.0002068  -0.0001042  -0.0000918   0.0001087  -0.0000828
            7           8           9          10          11          12
    1   0.0009803  -0.0006233  -0.0006618   0.0001346  -0.0000395   0.0000399
    2   0.0004129   0.0004928  -0.0000912  -0.0003611   0.0000125  -0.0002867
    3   0.0002241  -0.0002118  -0.0003284  -0.0004573   0.0000592   0.0003349
           13          14          15          16          17          18
    1  -0.0009330   0.0000452   0.0005166   0.0011297   0.0001649   0.0003084
    2   0.0000282  -0.0003125   0.0006269  -0.0006197   0.0001186   0.0009573
    3  -0.0003078   0.0002504  -0.0004013  -0.0023616   0.0014461   0.0010680
           19          20          21          22          23          24
    1  -0.0024242   0.0002763   0.0006753   0.0012036  -0.0005509  -0.0000526
    2  -0.0012103  -0.0003247   0.0004877   0.0023323  -0.0010055  -0.0003089
    3  -0.0020971   0.0000674   0.0029111   0.0014680   0.0001464  -0.0002974
           25          26          27          28          29          30
    1  -0.0011407   0.0001762   0.0007274  -0.0001483  -0.0000803   0.0000025
    2   0.0006503  -0.0012374   0.0011116  -0.0011077   0.0001417   0.0002026
    3  -0.0010109  -0.0014199   0.0000668  -0.0003609   0.0018637   0.0002844
           31          32          33          34          35          36
    1   0.0002340  -0.0002481   0.0000540   0.0001791   0.0003050   0.0006978
    2   0.0005550   0.0001490   0.0000872  -0.0001728   0.0000819  -0.0009636
    3   0.0000113   0.0001860   0.0000005   0.0004763  -0.0002717  -0.0004918
           37          38          39
    1  -0.0005917   0.0000717  -0.0002664
    2  -0.0001358   0.0005462   0.0001421
    3  -0.0002006  -0.0001081  -0.0001326
 Max gradient component =       2.911E-03
 RMS gradient           =       7.729E-04
 Gradient time:  CPU 3420.67 s  wall 218.77 s
 Geometry Optimization Parameters
   NAtoms,    NIC,     NZ,  NCons,   NDum,   NFix, NCnnct, MaxDiis
       39     293       0       3       0       0       0       0


** CONSTRAINED OPTIMIZATION IN DELOCALIZED INTERNAL COORDINATES **
   Searching for a Minimum

   Optimization Cycle:   1

                       Coordinates (Angstroms)
     ATOM                X               Y               Z
      1  C         7.6824233678    0.3467709521   -0.1306104628
      2  C         6.9957944883    1.4990003019    0.2158689400
      3  C         6.9457222918   -0.7794372311   -0.4606061441
      4  C         5.6164989639    1.4762970550    0.2266429318
      5  N         5.6194343287   -0.8170833765   -0.4511229355
      6  C         4.9648215215    0.2902851246   -0.1082554254
      7  C         3.4815013509    0.2475895321   -0.0982526079
      8  N         2.8500471204    1.3837428294   -0.2091991113
      9  C         2.7193285807   -0.9587642346    0.0441027010
     10  C         1.4969542873    1.4567498340   -0.2056151014
     11  N         3.1686741093   -2.2020497420    0.2275091379
     12  C         1.2893685881   -0.8760318812    0.0372884674
     13  C         0.6382686784    0.3885391582   -0.0902854897
     14  S         1.8769969456   -3.1433318563    0.3485702831
     15  N         0.6960837599   -2.0580805596    0.1906128373
     16  C        -0.8080356473    0.5443619935   -0.0663065613
     17  S        -1.8886613324   -0.7867647867   -0.1973638772
     18  C        -1.5578385245    1.7127280206    0.0719155704
     19  C        -3.3101037041    0.1513517026   -0.1069523365
     20  N        -1.0575021400    2.9718795961    0.2152486032
     21  C        -2.9709210196    1.4896018738    0.0525946190
     22  C        -4.6299012908   -0.4344670067   -0.1726665975
     23  C        -1.9341135422    3.9218260586    0.3228897979
     24  N        -3.8615668904    2.5111973925    0.1679074075
     25  C        -5.7757366093    0.1298958526   -0.6622297657
     26  S        -4.9409945563   -2.0444955525    0.3929878370
     27  C        -3.3441357195    3.6940498780    0.2982880758
     28  C        -6.8989440590   -0.7262683619   -0.5691442236
     29  C        -6.6002350481   -1.9307981680   -0.0143441125
     30  H         8.7627224491    0.3193208765   -0.1454087533
     31  H         7.5301908184    2.4033818617    0.4769408170
     32  H         7.4427741534   -1.6980726776   -0.7487073621
     33  H         5.0328214922    2.3469686284    0.4832536966
     34  H         1.0939525058    2.4533480465   -0.2838295507
     35  H        -1.5585760960    4.9336882269    0.4327291031
     36  H        -5.7926127481    1.1227658609   -1.0790550763
     37  H        -4.0266588785    4.5316105954    0.3929260422
     38  H        -7.8885200554   -0.4484393336   -0.8986887418
     39  H        -7.2640442930   -2.7580226598    0.1701067146
   Point Group: c1    Number of degrees of freedom:   111


   Energy is  -2291.149985875

              Constraints and their Current Values
                                        Value     Constraint
   Dihedral:        4   6   7   8       21.915       21.822
   Dihedral:       10  13  16  17      169.085      169.064
   Dihedral:       17  19  22  25     -150.000     -150.000

 Attempting to Generate Delocalized Internal Coordinates

   Using Lagrange Multiplier Algorithm


114 Hessian modes will be used to form the next step
  Hessian Eigenvalues:
    -0.977753   -0.977753   -0.977753    0.045000    0.045000    0.045000
     0.045000    0.045000    0.045000    0.045000    0.045000    0.045000
     0.045000    0.045000    0.045000    0.045000    0.045001    0.045001
     0.045001    0.045001    0.045001    0.045001    0.045001    0.045002
     0.045002    0.045002    0.045002    0.045003    0.045003    0.045004
     0.045004    0.045007    0.045008    0.045011    0.045025    0.045042
     0.159985    0.159992    0.159996    0.159998    0.159999    0.159999
     0.160000    0.160000    0.160000    0.160000    0.219998    0.221296
     0.223765    0.224234    0.233056    0.237962    0.243336    0.244277
     0.249685    0.249909    0.249932    0.249960    0.249971    0.249981
     0.249981    0.249983    0.249989    0.249990    0.249993    0.249993
     0.249995    0.312590    0.327535    0.334454    0.341192    0.341256
     0.354114    0.354472    0.355757    0.357029    0.359040    0.360700
     0.360954    0.362567    0.363655    0.364141    0.369052    0.372793
     0.376138    0.388453    0.390986    0.406991    0.407223    0.418668
     0.432515    0.440848    0.460521    0.465839    0.471161    0.473690
     0.482793    0.484038    0.485870    0.485956    0.504407    0.517477
     0.518991    0.525383    0.557629    0.572590    0.582389    0.589743
     0.639523    0.655133    0.663889    1.022753    1.022753    1.022753

 Minimum Search - Taking P-RFO Step
 Searching for Lamda that Maximizes Along the Constraint modes Only
 Value Taken    Lamda =   0.00000504
 Searching for Lamda that Minimizes Along All other modes
 Value Taken    Lamda =  -0.00047514
 Step Taken.  Stepsize is  0.089502

                             Maximum     Tolerance    Cnvgd?
         Gradient            0.004196       0.000300      NO
         Displacement        0.034263       0.001200      NO
         Energy change     *********       0.000001      NO


 New Cartesian Coordinates Obtained by Inverse Iteration

 Displacement from previous Coordinates is:  0.518608
 ----------------------------------------------------------------
             Standard Nuclear Orientation (Angstroms)
    I     Atom           X                Y                Z
 ----------------------------------------------------------------
    1      C       7.6814004532     0.3101272503    -0.1627141635
    2      C       7.0138646369     1.4650214730     0.2119350702
    3      C       6.9270584541    -0.8038985443    -0.4934972514
    4      C       5.6335713247     1.4572243168     0.2452325926
    5      N       5.6012327951    -0.8278727402    -0.4602883023
    6      C       4.9651580723     0.2816663799    -0.0921765581
    7      C       3.4814017482     0.2551000369    -0.0703677471
    8      N       2.8617516980     1.3990423892    -0.1664929474
    9      C       2.7091078068    -0.9444328683     0.0655501687
   10      C       1.5089848885     1.4869286927    -0.1640996380
   11      N       3.1462048995    -2.1938250523     0.2357290196
   12      C       1.2802601274    -0.8468943984     0.0603333163
   13      C       0.6413901722     0.4243702155    -0.0620365887
   14      S       1.8446640598    -3.1223615330     0.3491501270
   15      N       0.6741897499    -2.0243284867     0.2036912239
   16      C      -0.8057159347     0.5809885853    -0.0521989015
   17      S      -1.8713084436    -0.7595623704    -0.2010324905
   18      C      -1.5668578789     1.7439629740     0.0686643938
   19      C      -3.3000491418     0.1640604141    -0.1063703080
   20      N      -1.0809556428     3.0095478400     0.2110765048
   21      C      -2.9774316607     1.5067486040     0.0380682346
   22      C      -4.6132910128    -0.4386691402    -0.1704680879
   23      C      -1.9678099757     3.9510653831     0.3100028067
   24      N      -3.8797402811     2.5187847975     0.1463546619
   25      C      -5.7659516259     0.1127072514    -0.6572684217
   26      S      -4.9032263997    -2.0491186683     0.4006439938
   27      C      -3.3750605876     3.7066941254     0.2774658348
   28      C      -6.8750915884    -0.7622386800    -0.5759125281
   29      C      -6.5574120093    -1.9670243924    -0.0327962412
   30      H       8.7607708790     0.2702909489    -0.2002900644
   31      H       7.5625986934     2.3592135550     0.4747832744
   32      H       7.4099707379    -1.7230823530    -0.8046011929
   33      H       5.0627509586     2.3306496710     0.5204731635
   34      H       1.1148352474     2.4874504027    -0.2425824342
   35      H      -1.6058343588     4.9671584384     0.4239594446
   36      H      -5.8011957034     1.1104924100    -1.0637197723
   37      H      -4.0639722024     4.5387980649     0.3696481470
   38      H      -7.8686893655    -0.5021735683    -0.9073098041
   39      H      -7.2062959432    -2.8077676004     0.1432008116
 ----------------------------------------------------------------
 Molecular Point Group                 C1    NOp =  1
 Largest Abelian Subgroup              C1    NOp =  1
 Nuclear Repulsion Energy =  2931.6182606698 hartrees
 There are      110 alpha and      110 beta electrons
 Applying Cartesian multipole field
    Component          Value
    ---------          -----
     (2,0,0)        1.00000E-12
     (0,2,0)        2.00000E-11
     (0,0,2)       -3.00000E-10
 Nucleus-field energy     =     0.0000000487 hartrees
 Requested basis set is cc-pVTZ
 There are 356 shells and 1022 basis functions
 A cutoff of  1.0D-11 yielded  30931 shell pairs
 There are    243919 function pairs (    318367 Cartesian)
 Smallest overlap matrix eigenvalue = 2.58E-05
 Guess MOs from SCF MO coefficient file
 Reading MOs from coefficient file
 Reading MOs from coefficient file
 Long-range K will be added via erf
 Coulomb attenuation parameter = 0.2 bohr**(-1)
 A restricted hybrid HF-DFT SCF calculation will be
 performed using Pulay DIIS extrapolation
 Exchange:     0.2220 Hartree-Fock + 1.0000 wB97X-D + LR-HF
 Correlation:  1.0000 wB97X-D
 Using SG-2 standard quadrature grid
 Dispersion:   Grimme D
 SCF converges when DIIS error is below 1.0E-08
 Geometry optimization detected.  Setting ReadMinima to 0
 Setting SaveMinima to 0
 using 16 threads for integral computing 
 using 16 threads for integral computing 
 K construction time:  CPU 1127.71 s  wall 74.43 s
 -------------------------------------------------------
 OpenMP BLAS3 based DFT computing Module                
 Release: version 1.0, May 2013, Q-Chem Inc. Pittsburgh 
 -------------------------------------------------------
 ---------------------------------------
  Cycle       Energy         DIIS Error
 ---------------------------------------
    1   -2291.1493688150      2.55E-04
 K construction time:  CPU 1129.57 s  wall 74.56 s
    2   -2291.1500278728      2.80E-05
 K construction time:  CPU 834.28 s  wall 55.13 s
    3   -2291.1501150423      3.00E-05
 K construction time:  CPU 788.44 s  wall 52.21 s
    4   -2291.1502151216      9.90E-06
 K construction time:  CPU 740.20 s  wall 48.93 s
    5   -2291.1502290875      3.60E-06
 K construction time:  CPU 667.44 s  wall 44.18 s
    6   -2291.1502309548      1.20E-06
 K construction time:  CPU 608.33 s  wall 40.13 s
    7   -2291.1502311973      3.77E-07
 K construction time:  CPU 546.39 s  wall 36.05 s
    8   -2291.1502312270      1.68E-07
 K construction time:  CPU 492.86 s  wall 32.41 s
    9   -2291.1502312316      5.59E-08
 K construction time:  CPU 422.01 s  wall 27.63 s
   10   -2291.1502312325      2.52E-08
 K construction time:  CPU 378.92 s  wall 24.91 s
   11   -2291.1502312309      1.23E-08
 K construction time:  CPU 334.76 s  wall 21.94 s
   12   -2291.1502312256      5.39E-09 Convergence criterion met
 ---------------------------------------
 SCF time:  CPU 10880.65 s  wall 737.22 s
 SCF   energy in the final basis set = -2291.1502312256
 Total energy in the final basis set = -2291.1502312256
 
 --------------------------------------------------------------
 
                    Orbital Energies (a.u.)
 --------------------------------------------------------------
 
 Alpha MOs
 -- Occupied --
-89.146 -89.099 -89.080 -14.482 -14.479 -14.462 -14.462 -14.445
-14.434 -10.355 -10.352 -10.350 -10.345 -10.343 -10.343 -10.342
-10.341 -10.338 -10.336 -10.334 -10.330 -10.326 -10.323 -10.319
-10.309 -10.301 -10.298 -10.295 -10.294  -8.156  -8.113  -8.095
 -6.106  -6.101  -6.100  -6.062  -6.058  -6.057  -6.044  -6.040
 -6.038  -1.143  -1.101  -1.068  -1.048  -1.029  -1.014  -1.003
 -0.986  -0.925  -0.911  -0.896  -0.879  -0.869  -0.853  -0.839
 -0.811  -0.777  -0.772  -0.748  -0.738  -0.731  -0.716  -0.710
 -0.672  -0.656  -0.648  -0.629  -0.628  -0.621  -0.607  -0.603
 -0.587  -0.576  -0.567  -0.560  -0.557  -0.548  -0.543  -0.526
 -0.512  -0.507  -0.501  -0.498  -0.493  -0.492  -0.486  -0.482
 -0.474  -0.466  -0.464  -0.461  -0.451  -0.442  -0.429  -0.426
 -0.419  -0.412  -0.393  -0.377  -0.372  -0.360  -0.358  -0.349
 -0.342  -0.339  -0.334  -0.334  -0.321  -0.265
 -- Virtual --
 -0.054  -0.023   0.024   0.033   0.042   0.051   0.070   0.075
  0.085   0.089   0.117   0.121   0.124   0.126   0.130   0.136
  0.151   0.154   0.156   0.165   0.170   0.175   0.182   0.189
  0.199   0.205   0.209   0.216   0.225   0.231   0.244   0.248
  0.258   0.264   0.267   0.276   0.282   0.288   0.292   0.295
  0.300   0.304   0.306   0.315   0.317   0.322   0.324   0.331
  0.334   0.340   0.343   0.346   0.348   0.351   0.354   0.361
  0.366   0.368   0.370   0.375   0.383   0.385   0.387   0.389
  0.391   0.392   0.397   0.399   0.404   0.406   0.411   0.412
  0.414   0.418   0.420   0.428   0.432   0.434   0.434   0.440
  0.444   0.447   0.449   0.457   0.459   0.460   0.463   0.464
  0.467   0.474   0.475   0.477   0.483   0.485   0.489   0.491
  0.495   0.500   0.503   0.507   0.512   0.513   0.519   0.521
  0.526   0.531   0.533   0.537   0.539   0.542   0.549   0.554
  0.558   0.563   0.570   0.574   0.582   0.584   0.595   0.601
  0.603   0.608   0.611   0.614   0.621   0.628   0.634   0.638
  0.640   0.646   0.653   0.657   0.662   0.666   0.670   0.673
  0.675   0.687   0.691   0.697   0.699   0.710   0.712   0.716
  0.723   0.726   0.729   0.732   0.741   0.745   0.747   0.753
  0.762   0.766   0.769   0.770   0.778   0.781   0.783   0.789
  0.796   0.797   0.803   0.809   0.815   0.816   0.823   0.826
  0.828   0.836   0.839   0.841   0.844   0.848   0.852   0.857
  0.864   0.867   0.870   0.876   0.882   0.886   0.895   0.907
  0.911   0.912   0.922   0.923   0.925   0.931   0.936   0.939
  0.945   0.948   0.954   0.955   0.961   0.962   0.968   0.972
  0.981   0.983   0.988   0.994   0.999   1.003   1.008   1.021
  1.025   1.030   1.038   1.043   1.049   1.051   1.055   1.059
  1.061   1.067   1.078   1.081   1.085   1.093   1.095   1.100
  1.102   1.106   1.111   1.118   1.123   1.133   1.137   1.145
  1.151   1.158   1.160   1.166   1.175   1.182   1.186   1.194
  1.198   1.210   1.213   1.220   1.228   1.236   1.243   1.243
  1.252   1.263   1.267   1.270   1.278   1.291   1.298   1.299
  1.303   1.315   1.322   1.328   1.339   1.343   1.352   1.355
  1.360   1.368   1.373   1.376   1.378   1.380   1.388   1.390
  1.397   1.403   1.408   1.419   1.425   1.430   1.433   1.440
  1.445   1.447   1.452   1.461   1.465   1.476   1.480   1.483
  1.488   1.496   1.506   1.509   1.511   1.513   1.519   1.532
  1.548   1.555   1.561   1.570   1.579   1.585   1.589   1.593
  1.607   1.613   1.619   1.622   1.627   1.641   1.644   1.647
  1.655   1.659   1.666   1.672   1.681   1.687   1.697   1.699
  1.711   1.714   1.722   1.726   1.728   1.738   1.743   1.747
  1.754   1.763   1.779   1.781   1.789   1.801   1.804   1.808
  1.816   1.838   1.842   1.854   1.864   1.873   1.883   1.887
  1.895   1.901   1.907   1.916   1.928   1.936   1.942   1.950
  1.963   1.972   1.973   1.981   1.986   1.993   2.000   2.008
  2.014   2.024   2.029   2.040   2.045   2.053   2.056   2.065
  2.076   2.090   2.099   2.104   2.110   2.117   2.121   2.129
  2.141   2.155   2.164   2.176   2.178   2.183   2.189   2.200
  2.201   2.210   2.218   2.221   2.235   2.238   2.248   2.257
  2.263   2.279   2.289   2.292   2.295   2.299   2.312   2.312
  2.319   2.325   2.338   2.345   2.350   2.368   2.371   2.375
  2.382   2.390   2.397   2.399   2.406   2.415   2.418   2.429
  2.436   2.439   2.449   2.458   2.461   2.465   2.476   2.479
  2.488   2.497   2.507   2.522   2.525   2.528   2.531   2.534
  2.538   2.542   2.549   2.550   2.558   2.562   2.590   2.598
  2.607   2.616   2.626   2.631   2.636   2.647   2.653   2.658
  2.660   2.668   2.673   2.678   2.690   2.697   2.716   2.723
  2.727   2.734   2.742   2.756   2.764   2.773   2.775   2.780
  2.783   2.785   2.791   2.799   2.806   2.815   2.815   2.825
  2.830   2.839   2.845   2.851   2.867   2.870   2.878   2.879
  2.884   2.892   2.896   2.908   2.918   2.922   2.924   2.933
  2.939   2.943   2.950   2.952   2.953   2.970   2.971   2.979
  2.986   2.994   2.999   3.003   3.007   3.011   3.016   3.018
  3.023   3.025   3.036   3.040   3.049   3.053   3.059   3.060
  3.064   3.069   3.070   3.078   3.080   3.082   3.084   3.088
  3.093   3.094   3.104   3.105   3.119   3.121   3.122   3.133
  3.138   3.147   3.149   3.153   3.161   3.163   3.167   3.172
  3.175   3.179   3.182   3.191   3.194   3.197   3.202   3.208
  3.215   3.217   3.220   3.225   3.228   3.230   3.234   3.240
  3.245   3.247   3.252   3.258   3.261   3.262   3.265   3.272
  3.277   3.284   3.291   3.293   3.297   3.300   3.301   3.308
  3.310   3.315   3.320   3.323   3.327   3.334   3.341   3.343
  3.350   3.354   3.361   3.372   3.380   3.386   3.388   3.392
  3.396   3.399   3.404   3.414   3.416   3.421   3.425   3.436
  3.438   3.444   3.449   3.457   3.466   3.472   3.474   3.475
  3.482   3.489   3.494   3.498   3.499   3.513   3.514   3.519
  3.526   3.530   3.535   3.550   3.565   3.568   3.571   3.584
  3.588   3.595   3.613   3.617   3.623   3.632   3.638   3.649
  3.654   3.669   3.675   3.682   3.692   3.694   3.702   3.707
  3.713   3.716   3.732   3.735   3.739   3.748   3.750   3.759
  3.770   3.774   3.779   3.787   3.791   3.793   3.801   3.814
  3.816   3.830   3.832   3.846   3.850   3.857   3.875   3.879
  3.889   3.897   3.905   3.913   3.915   3.921   3.928   3.930
  3.934   3.936   3.940   3.954   3.954   3.961   3.969   3.982
  3.985   3.993   3.997   4.004   4.018   4.024   4.027   4.037
  4.048   4.053   4.071   4.073   4.078   4.088   4.094   4.103
  4.113   4.116   4.122   4.140   4.149   4.159   4.169   4.173
  4.186   4.191   4.200   4.203   4.208   4.215   4.221   4.222
  4.233   4.233   4.237   4.249   4.255   4.262   4.269   4.282
  4.286   4.289   4.305   4.315   4.321   4.326   4.329   4.337
  4.344   4.351   4.360   4.364   4.370   4.384   4.386   4.394
  4.404   4.411   4.425   4.430   4.439   4.442   4.447   4.447
  4.463   4.481   4.497   4.500   4.517   4.524   4.528   4.534
  4.546   4.554   4.561   4.569   4.584   4.592   4.594   4.609
  4.626   4.637   4.639   4.649   4.663   4.673   4.681   4.696
  4.713   4.720   4.732   4.735   4.759   4.770   4.778   4.792
  4.797   4.806   4.812   4.815   4.825   4.844   4.846   4.866
  4.873   4.881   4.885   4.887   4.903   4.916   4.918   4.935
  4.936   4.949   4.950   4.969   4.974   4.982   4.987   4.991
  5.001   5.004   5.007   5.013   5.030   5.043   5.047   5.053
  5.071   5.080   5.097   5.101   5.104   5.114   5.117   5.126
  5.135   5.144   5.147   5.158   5.171   5.176   5.182   5.192
  5.212   5.217   5.243   5.250   5.267   5.304   5.308   5.317
  5.322   5.344   5.353   5.378   5.381   5.402   5.423   5.428
  5.452   5.465   5.478   5.492   5.495   5.500   5.524   5.544
  5.564   5.569   5.577   5.591   5.598   5.610   5.627   5.650
  5.675   5.696   5.719   5.721   5.746   5.754   5.758   5.790
  5.797   5.830   5.839   5.859   5.878   5.898   5.913   5.928
  5.951   5.972   6.016   6.043   6.085   6.132   6.132   6.183
  6.202   6.243   6.252   6.297   6.309   6.355   6.383   6.426
  6.446   6.490   6.638   6.875   6.989   7.079   8.070   8.905
  9.815  10.182  10.660  11.139  11.291  11.660  12.016  12.129
 12.413  12.641  12.776  12.848  12.859  12.975  13.069  13.172
 13.332  13.426  13.537  14.164  14.328  14.660  15.067  15.101
 --------------------------------------------------------------
 
          Ground-State Mulliken Net Atomic Charges

     Atom                 Charge (a.u.)
  ----------------------------------------
      1 C                    -0.092720
      2 C                    -0.129404
      3 C                    -0.080285
      4 C                    -0.118287
      5 N                    -0.145214
      6 C                     0.082306
      7 C                     0.099278
      8 N                    -0.176918
      9 C                    -0.017901
     10 C                    -0.084199
     11 N                    -0.217492
     12 C                     0.053406
     13 C                     0.058633
     14 S                     0.404805
     15 N                    -0.305675
     16 C                    -0.070712
     17 S                     0.185373
     18 C                     0.055854
     19 C                    -0.060537
     20 N                    -0.169975
     21 C                     0.057972
     22 C                    -0.011591
     23 C                    -0.047134
     24 N                    -0.156369
     25 C                    -0.140083
     26 S                     0.106260
     27 C                    -0.046349
     28 C                    -0.154814
     29 C                    -0.182781
     30 H                     0.132939
     31 H                     0.120153
     32 H                     0.119549
     33 H                     0.137893
     34 H                     0.137095
     35 H                     0.128411
     36 H                     0.133441
     37 H                     0.129202
     38 H                     0.130358
     39 H                     0.135515
  ----------------------------------------
  Sum of atomic charges =     0.000000

 -----------------------------------------------------------------
                    Cartesian Multipole Moments
 -----------------------------------------------------------------
    Charge (ESU x 10^10)
                 0.0000
    Dipole Moment (Debye)
         X      -0.2983      Y       1.4485      Z       0.3347
       Tot       1.5162
    Quadrupole Moments (Debye-Ang)
        XX    -151.8865     XY       3.1260     YY    -164.9818
        XZ       4.4261     YZ       0.5265     ZZ    -186.4699
    Octopole Moments (Debye-Ang^2)
       XXX     110.6854    XXY      11.7063    XYY     -41.9655
       YYY      32.1714    XXZ     -14.0421    XYZ      14.8381
       YYZ      14.3958    XZZ       1.2501    YZZ      -6.4877
       ZZZ       2.4432
    Hexadecapole Moments (Debye-Ang^3)
      XXXX  -15925.5902   XXXY     568.5289   XXYY   -3532.7602
      XYYY    -155.2243   YYYY   -3449.1959   XXXZ     153.3372
      XXYZ      25.3628   XYYZ     -18.2611   YYYZ      23.1014
      XXZZ   -3426.7489   XYZZ     -31.4459   YYZZ    -725.9679
      XZZZ     -11.8854   YZZZ      -8.2256   ZZZZ    -306.4814
 -----------------------------------------------------------------
 Calculating analytic gradient of the SCF energy
 K construction time:  CPU 2960.40 s  wall 187.40 s
 Gradient of SCF Energy
            1           2           3           4           5           6
    1   0.0001203  -0.0001734   0.0000749   0.0001776   0.0000060  -0.0003037
    2  -0.0002349   0.0000087   0.0001247   0.0002887   0.0000313  -0.0003015
    3  -0.0001719   0.0000763  -0.0000041  -0.0003595   0.0001353   0.0006237
            7           8           9          10          11          12
    1   0.0004393  -0.0001042   0.0000244   0.0002463   0.0001405  -0.0002555
    2  -0.0001514   0.0000507  -0.0000812   0.0003376   0.0001073  -0.0001873
    3  -0.0005607   0.0000816   0.0000907  -0.0001471  -0.0000946   0.0003748
           13          14          15          16          17          18
    1  -0.0001391  -0.0000302  -0.0006654   0.0000329   0.0011083   0.0000497
    2  -0.0003604   0.0001200   0.0003991  -0.0005097   0.0000486   0.0002790
    3  -0.0002505   0.0000230  -0.0002283  -0.0009810  -0.0003676   0.0007717
           19          20          21          22          23          24
    1  -0.0005805  -0.0007146   0.0001510   0.0002541  -0.0003375  -0.0000861
    2  -0.0004434   0.0001348   0.0001546   0.0007540   0.0001094  -0.0003969
    3  -0.0003120   0.0000597   0.0012892   0.0006322  -0.0000156  -0.0004077
           25          26          27          28          29          30
    1  -0.0002256  -0.0001455   0.0003094  -0.0000104   0.0002289  -0.0000019
    2  -0.0001210  -0.0002882   0.0004146  -0.0003477   0.0002018   0.0000242
    3  -0.0002119   0.0003147   0.0000242   0.0000375   0.0000247   0.0001546
           31          32          33          34          35          36
    1  -0.0000183  -0.0000036  -0.0000530   0.0002557   0.0000779   0.0002215
    2   0.0000388  -0.0000195   0.0000148  -0.0002521   0.0000126  -0.0001243
    3  -0.0000960   0.0000768  -0.0000528   0.0000442  -0.0000277  -0.0004480
           37          38          39
    1  -0.0000495   0.0000319  -0.0000530
    2  -0.0001169   0.0002464   0.0000343
    3  -0.0000643   0.0001207  -0.0001544
 Max gradient component =       1.289E-03
 RMS gradient           =       3.191E-04
 Gradient time:  CPU 3423.35 s  wall 218.69 s
 Geometry Optimization Parameters
   NAtoms,    NIC,     NZ,  NCons,   NDum,   NFix, NCnnct, MaxDiis
       39     293       0       3       0       0       0       0

 Cartesian Hessian Update
 Hessian Updated using BFGS Update


** CONSTRAINED OPTIMIZATION IN DELOCALIZED INTERNAL COORDINATES **
   Searching for a Minimum

   Optimization Cycle:   2

                       Coordinates (Angstroms)
     ATOM                X               Y               Z
      1  C         7.6814004532    0.3101272503   -0.1627141635
      2  C         7.0138646369    1.4650214730    0.2119350702
      3  C         6.9270584541   -0.8038985443   -0.4934972514
      4  C         5.6335713247    1.4572243168    0.2452325926
      5  N         5.6012327951   -0.8278727402   -0.4602883023
      6  C         4.9651580723    0.2816663799   -0.0921765581
      7  C         3.4814017482    0.2551000369   -0.0703677471
      8  N         2.8617516980    1.3990423892   -0.1664929474
      9  C         2.7091078068   -0.9444328683    0.0655501687
     10  C         1.5089848885    1.4869286927   -0.1640996380
     11  N         3.1462048995   -2.1938250523    0.2357290196
     12  C         1.2802601274   -0.8468943984    0.0603333163
     13  C         0.6413901722    0.4243702155   -0.0620365887
     14  S         1.8446640598   -3.1223615330    0.3491501270
     15  N         0.6741897499   -2.0243284867    0.2036912239
     16  C        -0.8057159347    0.5809885853   -0.0521989015
     17  S        -1.8713084436   -0.7595623704   -0.2010324905
     18  C        -1.5668578789    1.7439629740    0.0686643938
     19  C        -3.3000491418    0.1640604141   -0.1063703080
     20  N        -1.0809556428    3.0095478400    0.2110765048
     21  C        -2.9774316607    1.5067486040    0.0380682346
     22  C        -4.6132910128   -0.4386691402   -0.1704680879
     23  C        -1.9678099757    3.9510653831    0.3100028067
     24  N        -3.8797402811    2.5187847975    0.1463546619
     25  C        -5.7659516259    0.1127072514   -0.6572684217
     26  S        -4.9032263997   -2.0491186683    0.4006439938
     27  C        -3.3750605876    3.7066941254    0.2774658348
     28  C        -6.8750915884   -0.7622386800   -0.5759125281
     29  C        -6.5574120093   -1.9670243924   -0.0327962412
     30  H         8.7607708790    0.2702909489   -0.2002900644
     31  H         7.5625986934    2.3592135550    0.4747832744
     32  H         7.4099707379   -1.7230823530   -0.8046011929
     33  H         5.0627509586    2.3306496710    0.5204731635
     34  H         1.1148352474    2.4874504027   -0.2425824342
     35  H        -1.6058343588    4.9671584384    0.4239594446
     36  H        -5.8011957034    1.1104924100   -1.0637197723
     37  H        -4.0639722024    4.5387980649    0.3696481470
     38  H        -7.8686893655   -0.5021735683   -0.9073098041
     39  H        -7.2062959432   -2.8077676004    0.1432008116
   Point Group: c1    Number of degrees of freedom:   111


   Energy is  -2291.150231226

              Constraints and their Current Values
                                        Value     Constraint
   Dihedral:        4   6   7   8       21.822       21.822
   Dihedral:       10  13  16  17      169.064      169.064
   Dihedral:       17  19  22  25     -150.000     -150.000
 Hessian Updated using BFGS Update

 98 Hessian modes will be used to form the next step
  Hessian Eigenvalues:
     0.025947    0.045000    0.045000    0.045000    0.045000    0.045000
     0.045000    0.045001    0.045001    0.045001    0.045001    0.045001
     0.045001    0.045001    0.045002    0.045002    0.045003    0.045004
     0.045004    0.045005    0.045008    0.045011    0.045025    0.045041
     0.048242    0.157405    0.159991    0.159994    0.159996    0.159999
     0.159999    0.160000    0.160000    0.160081    0.219983    0.221316
     0.223278    0.224193    0.233022    0.237751    0.242883    0.243911
     0.246351    0.249686    0.249928    0.249942    0.249968    0.249978
     0.249981    0.249984    0.249988    0.249991    0.249994    0.311498
     0.325864    0.334426    0.338837    0.341075    0.353809    0.354156
     0.355404    0.356319    0.359039    0.360609    0.360948    0.361372
     0.362460    0.364137    0.367443    0.372562    0.375773    0.385278
     0.388672    0.391175    0.407194    0.412778    0.421084    0.432544
     0.453359    0.463919    0.466508    0.471203    0.474134    0.482768
     0.484672    0.485374    0.488477    0.506188    0.517448    0.520033
     0.526276    0.557817    0.572725    0.582113    0.589759    0.639807
     0.655132    0.663942

 Minimum Search - Taking Simple RFO Step
 Searching for Lamda that Minimizes Along All modes
 Value Taken    Lamda =  -0.00018159
 Step Taken.  Stepsize is  0.066969

                             Maximum     Tolerance    Cnvgd?
         Gradient           0.003298      0.000300      NO
         Displacement       0.034391      0.001200      NO
         Energy change     -0.000245      0.000001      NO


 New Cartesian Coordinates Obtained by Inverse Iteration

 Displacement from previous Coordinates is:  0.362312
 ----------------------------------------------------------------
             Standard Nuclear Orientation (Angstroms)
    I     Atom           X                Y                Z
 ----------------------------------------------------------------
    1      C       7.6749057658     0.3258463087    -0.2003960230
    2      C       7.0103429826     1.4730921831     0.2017925442
    3      C       6.9191743226    -0.7875752858    -0.5301410364
    4      C       5.6303408101     1.4592732763     0.2596561718
    5      N       5.5945859507    -0.8177553739    -0.4717991116
    6      C       4.9613389695     0.2846368181    -0.0786932786
    7      C       3.4776297204     0.2525322144    -0.0415599677
    8      N       2.8530370324     1.3945798076    -0.1231227094
    9      C       2.7124105333    -0.9512884085     0.0918734230
   10      C       1.4998127022     1.4756341558    -0.1191873679
   11      N       3.1574674734    -2.1992840252     0.2521209708
   12      C       1.2830122712    -0.8611563741     0.0922891885
   13      C       0.6376272084     0.4083164718    -0.0255328018
   14      S       1.8623687479    -3.1364224582     0.3652326274
   15      N       0.6854776312    -2.0440091475     0.2312435167
   16      C      -0.8100150590     0.5663044278    -0.0276355964
   17      S      -1.8834726459    -0.7674953214    -0.1868137901
   18      C      -1.5642005161     1.7343161115     0.0723120595
   19      C      -3.3056033025     0.1657769649    -0.1015030032
   20      N      -1.0672303342     2.9963296468     0.2092950613
   21      C      -2.9761499088     1.5076860986     0.0294568125
   22      C      -4.6212614350    -0.4334361643    -0.1707832268
   23      C      -1.9471357634     3.9454911331     0.2953080799
   24      N      -3.8708419367     2.5277167739     0.1268888021
   25      C      -5.7706100127     0.1182726756    -0.6644663967
   26      S      -4.9149838736    -2.0413601820     0.4021029173
   27      C      -3.3564305762     3.7115225578     0.2548618673
   28      C      -6.8793734740    -0.7582986129    -0.5932429210
   29      C      -6.5641907520    -1.9638059339    -0.0500479582
   30      H       8.7533624078     0.2907073514    -0.2618091979
   31      H       7.5605193925     2.3657976252     0.4653374551
   32      H       7.4001885558    -1.6999976088    -0.8638763649
   33      H       5.0610007428     2.3272246826     0.5543372222
   34      H       1.0992045990     2.4744582314    -0.1955213988
   35      H      -1.5792403238     4.9595023637     0.4074827113
   36      H      -5.8069422020     1.1185791276    -1.0653998803
   37      H      -4.0371787415     4.5510616672     0.3394864467
   38      H      -7.8714522735    -0.5018695482    -0.9317621028
   39      H      -7.2122170419    -2.8060604065     0.1219556022
 ----------------------------------------------------------------
 Molecular Point Group                 C1    NOp =  1
 Largest Abelian Subgroup              C1    NOp =  1
 Nuclear Repulsion Energy =  2931.0091930140 hartrees
 There are      110 alpha and      110 beta electrons
 Applying Cartesian multipole field
    Component          Value
    ---------          -----
     (2,0,0)        1.00000E-12
     (0,2,0)        2.00000E-11
     (0,0,2)       -3.00000E-10
 Nucleus-field energy     =     0.0000000481 hartrees
 Requested basis set is cc-pVTZ
 There are 356 shells and 1022 basis functions
 A cutoff of  1.0D-11 yielded  30926 shell pairs
 There are    243900 function pairs (    318337 Cartesian)
 Smallest overlap matrix eigenvalue = 2.56E-05
 Guess MOs from SCF MO coefficient file
 Reading MOs from coefficient file
 Reading MOs from coefficient file
 Long-range K will be added via erf
 Coulomb attenuation parameter = 0.2 bohr**(-1)
 A restricted hybrid HF-DFT SCF calculation will be
 performed using Pulay DIIS extrapolation
 Exchange:     0.2220 Hartree-Fock + 1.0000 wB97X-D + LR-HF
 Correlation:  1.0000 wB97X-D
 Using SG-2 standard quadrature grid
 Dispersion:   Grimme D
 SCF converges when DIIS error is below 1.0E-08
 Geometry optimization detected.  Setting ReadMinima to 0
 Setting SaveMinima to 0
 using 16 threads for integral computing 
 using 16 threads for integral computing 
 K construction time:  CPU 1122.32 s  wall 74.08 s
 -------------------------------------------------------
 OpenMP BLAS3 based DFT computing Module                
 Release: version 1.0, May 2013, Q-Chem Inc. Pittsburgh 
 -------------------------------------------------------
 ---------------------------------------
  Cycle       Energy         DIIS Error
 ---------------------------------------
    1   -2291.1477393510      1.99E-04
 K construction time:  CPU 1123.06 s  wall 74.19 s
    2   -2291.1501553393      2.05E-05
 K construction time:  CPU 815.27 s  wall 53.89 s
    3   -2291.1502545839      1.70E-05
 K construction time:  CPU 771.32 s  wall 50.94 s
    4   -2291.1502851225      8.78E-06
 K construction time:  CPU 722.43 s  wall 47.87 s
    5   -2291.1502963259      2.77E-06
 K construction time:  CPU 663.36 s  wall 43.87 s
    6   -2291.1502973922      1.21E-06
 K construction time:  CPU 604.71 s  wall 39.89 s
    7   -2291.1502975945      3.93E-07
 K construction time:  CPU 546.13 s  wall 35.96 s
    8   -2291.1502976213      1.87E-07
 K construction time:  CPU 498.93 s  wall 32.82 s
    9   -2291.1502976282      7.18E-08
 K construction time:  CPU 433.64 s  wall 28.52 s
   10   -2291.1502976291      2.90E-08
 K construction time:  CPU 391.56 s  wall 25.70 s
   11   -2291.1502976276      1.20E-08
 K construction time:  CPU 345.72 s  wall 22.57 s
   12   -2291.1502976298      5.38E-09 Convergence criterion met
 ---------------------------------------
 SCF time:  CPU 10834.04 s  wall 733.98 s
 SCF   energy in the final basis set = -2291.1502976298
 Total energy in the final basis set = -2291.1502976298
 
 --------------------------------------------------------------
 
                    Orbital Energies (a.u.)
 --------------------------------------------------------------
 
 Alpha MOs
 -- Occupied --
-89.146 -89.099 -89.080 -14.482 -14.479 -14.462 -14.462 -14.444
-14.433 -10.355 -10.351 -10.350 -10.345 -10.343 -10.343 -10.342
-10.341 -10.338 -10.336 -10.334 -10.330 -10.326 -10.323 -10.319
-10.309 -10.300 -10.298 -10.295 -10.294  -8.156  -8.114  -8.095
 -6.106  -6.100  -6.100  -6.062  -6.059  -6.057  -6.044  -6.040
 -6.038  -1.143  -1.101  -1.068  -1.048  -1.030  -1.013  -1.003
 -0.986  -0.925  -0.911  -0.896  -0.879  -0.869  -0.853  -0.839
 -0.811  -0.777  -0.772  -0.748  -0.738  -0.731  -0.716  -0.710
 -0.672  -0.656  -0.648  -0.629  -0.628  -0.620  -0.608  -0.603
 -0.586  -0.576  -0.567  -0.560  -0.557  -0.548  -0.543  -0.526
 -0.512  -0.507  -0.500  -0.498  -0.493  -0.492  -0.486  -0.482
 -0.474  -0.466  -0.463  -0.461  -0.451  -0.442  -0.429  -0.426
 -0.419  -0.412  -0.393  -0.376  -0.372  -0.360  -0.358  -0.349
 -0.342  -0.339  -0.334  -0.334  -0.321  -0.265
 -- Virtual --
 -0.054  -0.024   0.024   0.033   0.042   0.051   0.070   0.075
  0.085   0.089   0.118   0.121   0.124   0.126   0.130   0.136
  0.152   0.154   0.156   0.165   0.169   0.175   0.182   0.189
  0.199   0.205   0.209   0.216   0.225   0.231   0.243   0.248
  0.259   0.264   0.267   0.276   0.282   0.288   0.292   0.295
  0.300   0.304   0.306   0.315   0.317   0.322   0.324   0.331
  0.334   0.339   0.344   0.346   0.348   0.351   0.354   0.361
  0.366   0.368   0.370   0.375   0.383   0.385   0.387   0.389
  0.391   0.392   0.398   0.399   0.404   0.406   0.411   0.412
  0.414   0.418   0.420   0.428   0.432   0.434   0.434   0.440
  0.444   0.447   0.449   0.457   0.459   0.461   0.463   0.464
  0.467   0.474   0.475   0.477   0.484   0.485   0.489   0.492
  0.494   0.500   0.503   0.507   0.511   0.514   0.518   0.522
  0.526   0.531   0.533   0.537   0.540   0.542   0.549   0.555
  0.558   0.562   0.570   0.574   0.582   0.585   0.595   0.600
  0.603   0.608   0.611   0.614   0.621   0.628   0.634   0.638
  0.640   0.646   0.653   0.657   0.663   0.666   0.669   0.673
  0.674   0.688   0.691   0.697   0.700   0.711   0.712   0.717
  0.723   0.726   0.728   0.733   0.741   0.746   0.747   0.754
  0.763   0.766   0.769   0.770   0.778   0.781   0.783   0.789
  0.797   0.798   0.803   0.809   0.814   0.816   0.823   0.825
  0.828   0.836   0.838   0.841   0.845   0.848   0.852   0.857
  0.864   0.867   0.870   0.876   0.882   0.887   0.894   0.907
  0.910   0.912   0.923   0.923   0.925   0.931   0.935   0.938
  0.945   0.949   0.955   0.955   0.961   0.961   0.968   0.972
  0.982   0.984   0.988   0.994   1.000   1.004   1.008   1.022
  1.025   1.030   1.038   1.042   1.048   1.051   1.055   1.059
  1.061   1.067   1.078   1.080   1.085   1.093   1.095   1.100
  1.102   1.106   1.112   1.119   1.123   1.134   1.138   1.145
  1.151   1.158   1.159   1.167   1.174   1.182   1.186   1.195
  1.198   1.211   1.212   1.220   1.228   1.236   1.242   1.244
  1.252   1.263   1.267   1.270   1.279   1.292   1.298   1.300
  1.304   1.315   1.322   1.328   1.339   1.343   1.352   1.355
  1.360   1.368   1.373   1.376   1.377   1.380   1.388   1.390
  1.397   1.402   1.408   1.419   1.425   1.430   1.433   1.440
  1.445   1.447   1.452   1.461   1.468   1.478   1.480   1.483
  1.488   1.496   1.506   1.508   1.511   1.514   1.518   1.533
  1.548   1.555   1.562   1.570   1.578   1.585   1.590   1.593
  1.607   1.614   1.620   1.621   1.627   1.641   1.644   1.647
  1.655   1.659   1.666   1.672   1.681   1.686   1.698   1.700
  1.711   1.714   1.722   1.727   1.730   1.738   1.742   1.746
  1.754   1.762   1.778   1.781   1.789   1.802   1.805   1.808
  1.817   1.837   1.843   1.854   1.865   1.874   1.883   1.887
  1.896   1.901   1.907   1.915   1.928   1.936   1.943   1.950
  1.960   1.972   1.973   1.981   1.986   1.992   2.000   2.008
  2.014   2.023   2.028   2.040   2.044   2.054   2.056   2.065
  2.077   2.090   2.099   2.104   2.110   2.117   2.121   2.128
  2.141   2.154   2.164   2.176   2.179   2.183   2.189   2.200
  2.201   2.210   2.218   2.221   2.235   2.239   2.247   2.257
  2.264   2.279   2.290   2.292   2.295   2.299   2.312   2.313
  2.320   2.325   2.339   2.345   2.350   2.367   2.371   2.375
  2.383   2.390   2.397   2.400   2.406   2.416   2.417   2.428
  2.436   2.438   2.449   2.458   2.461   2.465   2.475   2.479
  2.488   2.497   2.507   2.522   2.524   2.528   2.531   2.535
  2.538   2.542   2.549   2.551   2.558   2.562   2.590   2.598
  2.606   2.615   2.626   2.632   2.636   2.647   2.654   2.658
  2.660   2.669   2.673   2.678   2.691   2.697   2.715   2.723
  2.727   2.734   2.742   2.756   2.765   2.773   2.775   2.780
  2.783   2.785   2.791   2.798   2.807   2.815   2.815   2.825
  2.831   2.841   2.845   2.851   2.866   2.870   2.878   2.880
  2.884   2.893   2.896   2.908   2.917   2.922   2.924   2.932
  2.940   2.943   2.950   2.952   2.953   2.971   2.972   2.979
  2.985   2.994   2.998   3.004   3.007   3.011   3.016   3.019
  3.023   3.025   3.035   3.040   3.049   3.052   3.058   3.059
  3.064   3.069   3.070   3.078   3.080   3.083   3.085   3.088
  3.093   3.094   3.103   3.104   3.119   3.121   3.122   3.135
  3.139   3.147   3.149   3.153   3.161   3.163   3.166   3.171
  3.175   3.180   3.182   3.191   3.194   3.197   3.202   3.209
  3.215   3.217   3.220   3.226   3.228   3.231   3.234   3.239
  3.246   3.247   3.251   3.259   3.261   3.262   3.265   3.273
  3.277   3.284   3.291   3.293   3.297   3.300   3.302   3.308
  3.310   3.314   3.320   3.323   3.326   3.335   3.341   3.342
  3.350   3.354   3.360   3.373   3.379   3.387   3.388   3.392
  3.396   3.399   3.404   3.414   3.416   3.421   3.426   3.435
  3.437   3.444   3.450   3.456   3.465   3.472   3.474   3.476
  3.481   3.488   3.494   3.498   3.500   3.513   3.515   3.519
  3.526   3.529   3.536   3.549   3.566   3.568   3.571   3.584
  3.588   3.595   3.613   3.617   3.622   3.632   3.638   3.649
  3.653   3.668   3.676   3.682   3.691   3.693   3.703   3.707
  3.713   3.716   3.733   3.735   3.739   3.748   3.751   3.759
  3.769   3.774   3.779   3.786   3.791   3.793   3.802   3.814
  3.816   3.830   3.832   3.846   3.852   3.857   3.877   3.879
  3.890   3.897   3.905   3.911   3.915   3.922   3.927   3.930
  3.934   3.936   3.940   3.953   3.956   3.961   3.969   3.982
  3.984   3.994   3.997   4.005   4.018   4.025   4.028   4.037
  4.048   4.053   4.073   4.073   4.078   4.087   4.094   4.104
  4.113   4.116   4.121   4.140   4.149   4.159   4.168   4.173
  4.185   4.192   4.201   4.204   4.207   4.214   4.220   4.222
  4.232   4.233   4.236   4.249   4.255   4.263   4.269   4.282
  4.286   4.289   4.305   4.316   4.322   4.327   4.330   4.337
  4.344   4.351   4.361   4.363   4.370   4.384   4.387   4.396
  4.406   4.411   4.426   4.429   4.438   4.443   4.447   4.448
  4.462   4.481   4.497   4.500   4.517   4.524   4.529   4.535
  4.545   4.555   4.561   4.569   4.584   4.592   4.595   4.610
  4.627   4.637   4.639   4.650   4.663   4.672   4.681   4.696
  4.713   4.721   4.732   4.736   4.758   4.772   4.779   4.792
  4.798   4.806   4.812   4.815   4.825   4.844   4.846   4.866
  4.873   4.881   4.884   4.887   4.903   4.916   4.918   4.935
  4.936   4.949   4.950   4.970   4.975   4.982   4.988   4.991
  5.001   5.005   5.007   5.014   5.030   5.045   5.047   5.053
  5.072   5.080   5.097   5.102   5.106   5.116   5.118   5.127
  5.136   5.143   5.149   5.158   5.170   5.176   5.181   5.191
  5.212   5.217   5.243   5.250   5.267   5.303   5.309   5.317
  5.321   5.344   5.353   5.378   5.382   5.404   5.424   5.428
  5.454   5.466   5.478   5.493   5.494   5.501   5.523   5.544
  5.563   5.569   5.578   5.592   5.598   5.611   5.628   5.650
  5.675   5.696   5.720   5.722   5.746   5.754   5.758   5.789
  5.798   5.832   5.839   5.859   5.879   5.898   5.915   5.927
  5.952   5.972   6.018   6.043   6.086   6.134   6.134   6.182
  6.203   6.243   6.252   6.298   6.310   6.356   6.384   6.427
  6.447   6.491   6.639   6.876   6.988   7.079   8.072   8.907
  9.812  10.181  10.659  11.136  11.285  11.658  12.008  12.127
 12.413  12.640  12.779  12.849  12.861  12.966  13.066  13.193
 13.334  13.424  13.541  14.168  14.338  14.664  15.068  15.109
 --------------------------------------------------------------
 
          Ground-State Mulliken Net Atomic Charges

     Atom                 Charge (a.u.)
  ----------------------------------------
      1 C                    -0.092644
      2 C                    -0.129394
      3 C                    -0.080515
      4 C                    -0.118587
      5 N                    -0.145105
      6 C                     0.082779
      7 C                     0.098769
      8 N                    -0.177027
      9 C                    -0.017792
     10 C                    -0.084187
     11 N                    -0.217824
     12 C                     0.052898
     13 C                     0.057880
     14 S                     0.405570
     15 N                    -0.306128
     16 C                    -0.069764
     17 S                     0.184961
     18 C                     0.056399
     19 C                    -0.060763
     20 N                    -0.169202
     21 C                     0.057307
     22 C                    -0.012131
     23 C                    -0.047695
     24 N                    -0.156418
     25 C                    -0.140474
     26 S                     0.106619
     27 C                    -0.045365
     28 C                    -0.154720
     29 C                    -0.182922
     30 H                     0.132886
     31 H                     0.120233
     32 H                     0.119292
     33 H                     0.137673
     34 H                     0.138318
     35 H                     0.128281
     36 H                     0.133613
     37 H                     0.129186
     38 H                     0.130439
     39 H                     0.135553
  ----------------------------------------
  Sum of atomic charges =     0.000000

 -----------------------------------------------------------------
                    Cartesian Multipole Moments
 -----------------------------------------------------------------
    Charge (ESU x 10^10)
                 0.0000
    Dipole Moment (Debye)
         X      -0.3137      Y       1.4763      Z       0.2897
       Tot       1.5368
    Quadrupole Moments (Debye-Ang)
        XX    -151.9426     XY       3.2587     YY    -164.8797
        XZ       4.2088     YZ       0.5284     ZZ    -186.4048
    Octopole Moments (Debye-Ang^2)
       XXX     109.8129    XXY      11.8072    XYY     -41.4888
       YYY      33.5852    XXZ     -18.2444    XYZ      14.9776
       YYZ      13.0461    XZZ       1.7266    YZZ      -6.2558
       ZZZ      -0.2030
    Hexadecapole Moments (Debye-Ang^3)
      XXXX  -15938.2729   XXXY     579.2241   XXYY   -3536.2937
      XYYY    -157.3562   YYYY   -3449.0071   XXXZ     127.5884
      XXYZ      29.0980   XYYZ     -18.7502   YYYZ      25.6839
      XXZZ   -3423.0175   XYZZ     -32.7615   YYZZ    -727.1021
      XZZZ     -18.5776   YZZZ      -4.0232   ZZZZ    -309.5691
 -----------------------------------------------------------------
 Calculating analytic gradient of the SCF energy
 K construction time:  CPU 2983.42 s  wall 188.89 s
 Gradient of SCF Energy
            1           2           3           4           5           6
    1   0.0000179   0.0003252  -0.0001341  -0.0003406  -0.0000907   0.0002235
    2  -0.0001339   0.0002115   0.0001366   0.0004041   0.0001808  -0.0004617
    3  -0.0001455   0.0001664   0.0000850  -0.0006159   0.0001406   0.0011760
            7           8           9          10          11          12
    1  -0.0001608  -0.0001537   0.0001778  -0.0002101  -0.0000806   0.0002406
    2  -0.0002071  -0.0000008   0.0000717  -0.0001392  -0.0000801   0.0001868
    3  -0.0012386   0.0004814   0.0003023   0.0001419  -0.0001706   0.0003893
           13          14          15          16          17          18
    1   0.0000312   0.0001072   0.0003636  -0.0005081  -0.0004757  -0.0000941
    2   0.0002129  -0.0003394  -0.0001919   0.0005348   0.0001556  -0.0000983
    3  -0.0000443  -0.0000056  -0.0000613   0.0000352  -0.0014845   0.0004377
           19          20          21          22          23          24
    1   0.0007749   0.0005007  -0.0001932  -0.0004397   0.0000254   0.0000306
    2  -0.0001528  -0.0004480   0.0000196  -0.0000857   0.0003771  -0.0002092
    3   0.0007702  -0.0002644   0.0001410   0.0003956  -0.0001357  -0.0002181
           25          26          27          28          29          30
    1   0.0003777  -0.0002376   0.0001008   0.0000007   0.0001846  -0.0000101
    2  -0.0004277   0.0004064  -0.0000617   0.0000650   0.0000611  -0.0000741
    3  -0.0001292   0.0007302  -0.0000300   0.0000245  -0.0005582   0.0000315
           31          32          33          34          35          36
    1  -0.0000926   0.0000955  -0.0000594  -0.0003325  -0.0000595  -0.0000802
    2  -0.0001705  -0.0000672  -0.0000357   0.0004027  -0.0000496   0.0001594
    3  -0.0001136  -0.0000472  -0.0000581  -0.0001927   0.0001164  -0.0002375
           37          38          39
    1   0.0001504  -0.0000340   0.0000588
    2  -0.0000439  -0.0000474  -0.0000600
    3   0.0000389   0.0002106  -0.0000640
 Max gradient component =       1.484E-03
 RMS gradient           =       3.333E-04
 Gradient time:  CPU 3444.49 s  wall 220.18 s
 Geometry Optimization Parameters
   NAtoms,    NIC,     NZ,  NCons,   NDum,   NFix, NCnnct, MaxDiis
       39     293       0       3       0       0       0       0

 Cartesian Hessian Update
 Hessian Updated using BFGS Update


** CONSTRAINED OPTIMIZATION IN DELOCALIZED INTERNAL COORDINATES **
   Searching for a Minimum

   Optimization Cycle:   3

                       Coordinates (Angstroms)
     ATOM                X               Y               Z
      1  C         7.6749057658    0.3258463087   -0.2003960230
      2  C         7.0103429826    1.4730921831    0.2017925442
      3  C         6.9191743226   -0.7875752858   -0.5301410364
      4  C         5.6303408101    1.4592732763    0.2596561718
      5  N         5.5945859507   -0.8177553739   -0.4717991116
      6  C         4.9613389695    0.2846368181   -0.0786932786
      7  C         3.4776297204    0.2525322144   -0.0415599677
      8  N         2.8530370324    1.3945798076   -0.1231227094
      9  C         2.7124105333   -0.9512884085    0.0918734230
     10  C         1.4998127022    1.4756341558   -0.1191873679
     11  N         3.1574674734   -2.1992840252    0.2521209708
     12  C         1.2830122712   -0.8611563741    0.0922891885
     13  C         0.6376272084    0.4083164718   -0.0255328018
     14  S         1.8623687479   -3.1364224582    0.3652326274
     15  N         0.6854776312   -2.0440091475    0.2312435167
     16  C        -0.8100150590    0.5663044278   -0.0276355964
     17  S        -1.8834726459   -0.7674953214   -0.1868137901
     18  C        -1.5642005161    1.7343161115    0.0723120595
     19  C        -3.3056033025    0.1657769649   -0.1015030032
     20  N        -1.0672303342    2.9963296468    0.2092950613
     21  C        -2.9761499088    1.5076860986    0.0294568125
     22  C        -4.6212614350   -0.4334361643   -0.1707832268
     23  C        -1.9471357634    3.9454911331    0.2953080799
     24  N        -3.8708419367    2.5277167739    0.1268888021
     25  C        -5.7706100127    0.1182726756   -0.6644663967
     26  S        -4.9149838736   -2.0413601820    0.4021029173
     27  C        -3.3564305762    3.7115225578    0.2548618673
     28  C        -6.8793734740   -0.7582986129   -0.5932429210
[...]
     39  H        -7.2064227297   -2.8166542771    0.0661884787
   Point Group: c1    Number of degrees of freedom:   111


   Energy is  -2291.150357210

              Constraints and their Current Values
                                        Value     Constraint
   Dihedral:        4   6   7   8       21.822       21.822
   Dihedral:       10  13  16  17      169.064      169.064
   Dihedral:       17  19  22  25     -150.000     -150.000
 Hessian Updated using BFGS Update

103 Hessian modes will be used to form the next step
  Hessian Eigenvalues:
     0.010471    0.025796    0.040852    0.045000    0.045000    0.045000
     0.045000    0.045000    0.045000    0.045000    0.045001    0.045001
     0.045001    0.045001    0.045001    0.045002    0.045002    0.045002
     0.045003    0.045004    0.045007    0.045008    0.045022    0.045034
     0.045147    0.045185    0.045512    0.049047    0.156984    0.159702
     0.159875    0.159998    0.159999    0.160000    0.160002    0.160079
     0.160123    0.160293    0.219990    0.221400    0.224003    0.224252
     0.233570    0.238971    0.241968    0.243994    0.244791    0.248108
     0.249233    0.249732    0.249941    0.249947    0.249981    0.249986
     0.249990    0.250982    0.254794    0.291042    0.311832    0.325841
     0.334458    0.339365    0.341703    0.354102    0.354584    0.355767
     0.357192    0.359042    0.360712    0.360942    0.361303    0.364091
     0.364198    0.371181    0.375676    0.381529    0.388193    0.394713
     0.402516    0.408269    0.423946    0.430488    0.432439    0.460679
     0.462306    0.470949    0.473776    0.481895    0.482667    0.484846
     0.485759    0.504116    0.515183    0.519733    0.525287    0.556630
     0.572352    0.580934    0.589646    0.639057    0.647523    0.662313
     0.682602

 Minimum Search - Taking Simple RFO Step
 Searching for Lamda that Minimizes Along All modes
 Value Taken    Lamda =   0.00000000
 Step Taken.  Stepsize is  0.002756

                             Maximum     Tolerance    Cnvgd?
         Gradient           0.000067      0.000300     YES
         Displacement       0.000903      0.001200     YES
         Energy change     -0.000001      0.000001     YES

 Final energy is   -2291.15035721019     


 ******************************
 **  OPTIMIZATION CONVERGED  **
 ******************************

                       Coordinates (Angstroms)
     ATOM                X               Y               Z
      1  C         7.6712302547    0.3131017047   -0.2616021113
      2  C         7.0209081668    1.4595001836    0.1648156057
      3  C         6.9034456909   -0.7945826642   -0.5833902567
      4  C         5.6428225065    1.4509618325    0.2537179103
      5  N         5.5802363977   -0.8194873836   -0.4960272385
      6  C         4.9607826302    0.2824993196   -0.0792186745
      7  C         3.4780255390    0.2571456248   -0.0153619164
      8  N         2.8562600304    1.4017876556   -0.0785092307
      9  C         2.7105932067   -0.9444344980    0.1267061936
     10  C         1.5031346665    1.4858420974   -0.0590326669
     11  N         3.1544529627   -2.1928034339    0.2866853176
     12  C         1.2818414432   -0.8505853342    0.1461097195
     13  C         0.6386309858    0.4202592751    0.0374930318
     14  S         1.8581883856   -3.1257507476    0.4206806997
     15  N         0.6824771053   -2.0307707582    0.2977021424
     16  C        -0.8090831855    0.5758096829    0.0337329378
     17  S        -1.8768525939   -0.7635547280   -0.1218765844
     18  C        -1.5689606545    1.7427716809    0.1069934085
     19  C        -3.3036882416    0.1663411421   -0.0749994997
     20  N        -1.0800196547    3.0091167296    0.2347734132
     21  C        -2.9795624217    1.5106547643    0.0456296032
     22  C        -4.6160072721   -0.4358252529   -0.1695485227
     23  C        -1.9646875550    3.9555759512    0.2943142217
     24  N        -3.8796874275    2.5283982293    0.1177728924
     25  C        -5.7551540891    0.1104255063   -0.6927631312
     26  S        -4.9156281130   -2.0481386515    0.3892121976
     27  C        -3.3725002578    3.7160230360    0.2371344159
     28  C        -6.8625315714   -0.7694629503   -0.6456932387
     29  C        -6.5567016699   -1.9732254396   -0.0930861772
     30  H         8.7478221237    0.2748521706   -0.3486981193
     31  H         7.5808400863    2.3477624253    0.4241383116
     32  H         7.3722824087   -1.7064154823   -0.9349417357
     33  H         5.0855038875    2.3194287475    0.5692100816
     34  H         1.1049862353    2.4858899494   -0.1239323712
     35  H        -1.6016897175    4.9726553553    0.3952050509
     36  H        -5.7855692321    1.1117593539   -1.0907237790
     37  H        -4.0580121462    4.5537908423    0.3003549266
     38  H        -7.8464285335   -0.5158178349   -1.0094259599
     39  H        -7.2064227297   -2.8166542771    0.0661884787

Z-matrix Print:
$molecule
0 1
S 
C  1 1.703750
C  2 1.388088 1 109.598056
N  3 1.360600 2 125.068189 1 179.682849 0
C  4 1.296896 3 115.540145 2 -179.556380 0
H  5 1.084333 4 117.751784 3 179.846452 0
C  5 1.429193 4 122.847263 3 0.171988 0
H  7 1.084618 5 119.378038 4 179.971073 0
N  7 1.296907 5 123.214421 4 0.152525 0
C  9 1.363459 7 115.943736 5 -0.230405 0
C  10 1.394482 9 125.926833 7 179.511467 0
C  2 1.446971 1 122.046100 3 -179.317410 0
C  12 1.367406 2 127.901356 1 149.999979 0
H  13 1.077946 12 122.401954 2 1.313888 0
C  13 1.415169 12 113.002898 2 -178.950006 0
H  15 1.079208 13 123.783553 12 -179.870215 0
C  15 1.359393 13 112.833188 12 0.173724 0
H  17 1.076512 15 128.181032 13 -179.770680 0
C  11 1.456052 10 129.128475 9 1.816593 0
C  19 1.375555 11 122.815781 10 8.889316 0
H  20 1.078346 19 119.379091 11 -1.078494 0
N  20 1.355873 19 125.463729 11 179.081786 0
C  22 1.304142 20 121.972448 19 -0.567420 0
C  19 1.428483 11 122.883624 10 -170.897186 0
N  24 1.332312 19 126.452173 11 2.257975 0
C  24 1.431962 19 120.433755 11 -179.176997 0
N  26 1.334552 24 113.049560 19 -177.698377 0
C  23 1.484348 22 117.333983 20 -178.488675 0
N  28 1.331100 23 117.658541 22 156.247489 0
C  29 1.326324 28 117.992579 23 -178.562078 0
H  30 1.083898 29 115.918893 28 179.453865 0
C  30 1.385643 29 123.539563 28 -0.162259 0
H  32 1.080786 30 120.327635 29 -179.772611 0
C  32 1.385273 30 118.223670 29 0.500187 0
H  34 1.081565 32 120.691961 30 179.864403 0
C  34 1.380977 32 118.892726 30 -0.121217 0
H  36 1.079062 34 121.954741 32 179.298005 0
S  27 1.602700 26 106.591170 24 -0.821540 0
S  17 1.712117 15 111.647674 13 -0.422750 0
$end

 
 --------------------------------------------------------------
 
                    Orbital Energies (a.u.)
 --------------------------------------------------------------
 
 Alpha MOs
 -- Occupied --
-89.146 -89.099 -89.080 -14.482 -14.479 -14.462 -14.462 -14.445
-14.434 -10.355 -10.352 -10.350 -10.345 -10.343 -10.343 -10.342
-10.341 -10.338 -10.336 -10.334 -10.330 -10.326 -10.323 -10.319
-10.309 -10.301 -10.298 -10.295 -10.294  -8.156  -8.113  -8.095
 -6.106  -6.101  -6.100  -6.062  -6.059  -6.057  -6.044  -6.040
 -6.038  -1.143  -1.101  -1.068  -1.048  -1.029  -1.013  -1.003
 -0.986  -0.925  -0.911  -0.896  -0.879  -0.869  -0.853  -0.839
 -0.811  -0.777  -0.772  -0.748  -0.738  -0.731  -0.716  -0.710
 -0.672  -0.656  -0.648  -0.629  -0.628  -0.620  -0.607  -0.603
 -0.587  -0.576  -0.567  -0.560  -0.557  -0.548  -0.543  -0.526
 -0.512  -0.508  -0.501  -0.498  -0.493  -0.492  -0.486  -0.483
 -0.474  -0.465  -0.464  -0.461  -0.451  -0.442  -0.429  -0.426
 -0.419  -0.412  -0.392  -0.377  -0.372  -0.360  -0.358  -0.349
 -0.343  -0.339  -0.334  -0.334  -0.321  -0.264
 -- Virtual --
 -0.054  -0.023   0.024   0.033   0.042   0.051   0.070   0.075
  0.085   0.089   0.118   0.121   0.124   0.126   0.130   0.136
  0.151   0.154   0.156   0.165   0.169   0.175   0.182   0.189
  0.199   0.205   0.209   0.216   0.224   0.231   0.243   0.248
  0.259   0.265   0.267   0.276   0.282   0.288   0.292   0.295
  0.300   0.304   0.306   0.315   0.317   0.322   0.324   0.332
  0.334   0.339   0.344   0.346   0.349   0.351   0.354   0.361
  0.366   0.368   0.370   0.375   0.383   0.385   0.387   0.389
  0.391   0.392   0.398   0.399   0.404   0.406   0.411   0.412
  0.414   0.417   0.420   0.428   0.432   0.433   0.435   0.440
  0.444   0.448   0.449   0.457   0.459   0.460   0.463   0.464
  0.467   0.474   0.475   0.477   0.484   0.485   0.489   0.492
  0.495   0.501   0.503   0.507   0.511   0.514   0.518   0.522
  0.526   0.531   0.533   0.537   0.539   0.542   0.549   0.555
  0.558   0.562   0.571   0.574   0.582   0.585   0.595   0.600
  0.604   0.608   0.611   0.614   0.620   0.628   0.635   0.638
  0.640   0.646   0.653   0.657   0.662   0.666   0.670   0.672
  0.673   0.688   0.691   0.697   0.701   0.711   0.712   0.718
  0.723   0.726   0.729   0.732   0.740   0.747   0.747   0.754
  0.763   0.765   0.769   0.770   0.777   0.782   0.783   0.789
  0.798   0.798   0.803   0.810   0.813   0.815   0.822   0.825
  0.829   0.837   0.838   0.841   0.846   0.848   0.851   0.857
  0.863   0.868   0.870   0.875   0.883   0.888   0.894   0.906
  0.908   0.912   0.923   0.924   0.926   0.931   0.935   0.938
  0.946   0.949   0.955   0.957   0.961   0.962   0.968   0.972
  0.982   0.983   0.988   0.995   1.001   1.004   1.008   1.022
  1.026   1.031   1.037   1.042   1.049   1.050   1.055   1.059
  1.061   1.067   1.078   1.081   1.084   1.094   1.095   1.100
  1.102   1.106   1.112   1.119   1.123   1.134   1.139   1.145
  1.152   1.158   1.159   1.167   1.174   1.182   1.186   1.194
  1.198   1.210   1.212   1.220   1.228   1.236   1.242   1.244
  1.253   1.263   1.266   1.270   1.280   1.293   1.298   1.300
  1.305   1.315   1.323   1.327   1.338   1.343   1.352   1.355
  1.359   1.368   1.373   1.376   1.377   1.380   1.389   1.390
  1.397   1.403   1.408   1.419   1.425   1.430   1.433   1.440
  1.445   1.447   1.452   1.461   1.467   1.477   1.480   1.483
  1.488   1.496   1.506   1.508   1.510   1.515   1.519   1.533
  1.548   1.556   1.562   1.570   1.578   1.585   1.590   1.594
  1.607   1.614   1.620   1.623   1.627   1.641   1.644   1.647
  1.655   1.659   1.666   1.672   1.681   1.686   1.698   1.700
  1.711   1.714   1.722   1.726   1.730   1.738   1.741   1.747
  1.755   1.762   1.779   1.781   1.790   1.804   1.804   1.808
  1.817   1.837   1.844   1.855   1.865   1.874   1.883   1.887
  1.896   1.901   1.907   1.916   1.928   1.936   1.943   1.951
  1.962   1.972   1.973   1.980   1.986   1.992   2.000   2.008
  2.014   2.023   2.029   2.040   2.044   2.054   2.055   2.066
  2.076   2.090   2.097   2.104   2.110   2.117   2.121   2.128
  2.141   2.154   2.163   2.175   2.179   2.183   2.188   2.199
  2.202   2.210   2.219   2.221   2.235   2.240   2.249   2.256
  2.263   2.279   2.291   2.292   2.295   2.300   2.312   2.312
  2.320   2.326   2.338   2.345   2.350   2.367   2.371   2.375
  2.382   2.389   2.396   2.400   2.406   2.417   2.418   2.428
  2.437   2.438   2.449   2.458   2.461   2.465   2.474   2.478
  2.490   2.497   2.509   2.522   2.523   2.527   2.531   2.534
  2.537   2.542   2.549   2.552   2.558   2.562   2.589   2.599
  2.605   2.615   2.626   2.631   2.636   2.647   2.654   2.659
  2.660   2.669   2.673   2.677   2.691   2.697   2.715   2.722
  2.727   2.734   2.741   2.756   2.764   2.773   2.776   2.781
  2.783   2.785   2.792   2.797   2.808   2.815   2.816   2.825
  2.831   2.842   2.846   2.851   2.866   2.870   2.877   2.882
  2.884   2.892   2.895   2.908   2.917   2.922   2.924   2.931
  2.940   2.943   2.950   2.951   2.954   2.971   2.971   2.979
  2.984   2.993   2.999   3.004   3.007   3.011   3.015   3.019
  3.022   3.025   3.035   3.040   3.049   3.052   3.058   3.059
  3.064   3.068   3.070   3.078   3.079   3.083   3.085   3.089
  3.093   3.094   3.103   3.105   3.119   3.122   3.122   3.135
  3.139   3.147   3.149   3.153   3.161   3.162   3.167   3.171
  3.175   3.180   3.182   3.191   3.194   3.197   3.202   3.209
  3.215   3.217   3.220   3.226   3.228   3.231   3.234   3.239
  3.246   3.248   3.251   3.258   3.261   3.262   3.266   3.274
  3.277   3.284   3.291   3.294   3.297   3.299   3.303   3.309
  3.310   3.314   3.320   3.324   3.326   3.335   3.340   3.342
  3.350   3.354   3.359   3.373   3.379   3.387   3.388   3.392
  3.396   3.399   3.404   3.414   3.417   3.422   3.426   3.435
  3.436   3.444   3.450   3.456   3.466   3.472   3.474   3.476
  3.481   3.486   3.494   3.497   3.500   3.512   3.515   3.520
  3.526   3.529   3.536   3.549   3.565   3.568   3.572   3.584
  3.586   3.595   3.613   3.617   3.623   3.632   3.639   3.649
  3.653   3.669   3.676   3.681   3.691   3.693   3.702   3.709
  3.712   3.717   3.733   3.735   3.739   3.748   3.751   3.759
  3.769   3.774   3.779   3.786   3.791   3.793   3.803   3.813
  3.817   3.830   3.832   3.846   3.852   3.856   3.876   3.879
  3.892   3.897   3.904   3.911   3.915   3.922   3.928   3.930
  3.934   3.936   3.939   3.953   3.956   3.960   3.970   3.983
  3.984   3.993   3.998   4.005   4.018   4.024   4.027   4.037
  4.049   4.053   4.073   4.074   4.079   4.087   4.093   4.105
  4.113   4.115   4.121   4.140   4.148   4.159   4.168   4.174
  4.185   4.191   4.201   4.203   4.206   4.214   4.220   4.222
  4.232   4.234   4.237   4.249   4.254   4.262   4.268   4.281
  4.285   4.290   4.305   4.315   4.322   4.328   4.329   4.338
  4.344   4.351   4.361   4.363   4.370   4.385   4.388   4.395
  4.405   4.411   4.426   4.429   4.438   4.443   4.447   4.448
  4.463   4.481   4.496   4.499   4.517   4.525   4.529   4.535
  4.546   4.556   4.561   4.569   4.584   4.592   4.595   4.611
  4.627   4.636   4.640   4.650   4.663   4.672   4.682   4.696
  4.713   4.721   4.733   4.736   4.758   4.773   4.778   4.792
  4.798   4.806   4.812   4.815   4.825   4.845   4.847   4.867
  4.873   4.881   4.883   4.886   4.903   4.916   4.918   4.935
  4.936   4.949   4.951   4.970   4.975   4.981   4.988   4.990
  5.001   5.005   5.007   5.014   5.029   5.045   5.047   5.053
  5.072   5.080   5.097   5.103   5.107   5.116   5.119   5.128
  5.136   5.144   5.148   5.157   5.171   5.176   5.180   5.191
  5.212   5.218   5.242   5.250   5.267   5.303   5.309   5.317
  5.321   5.344   5.353   5.378   5.381   5.405   5.424   5.428
  5.454   5.465   5.477   5.493   5.494   5.501   5.524   5.543
  5.563   5.569   5.578   5.592   5.599   5.611   5.627   5.649
  5.676   5.696   5.719   5.722   5.745   5.754   5.758   5.789
  5.797   5.831   5.839   5.859   5.879   5.899   5.915   5.927
  5.952   5.973   6.018   6.043   6.086   6.134   6.135   6.183
  6.203   6.243   6.252   6.300   6.311   6.357   6.383   6.426
  6.447   6.490   6.638   6.876   6.988   7.078   8.073   8.905
  9.809  10.184  10.659  11.138  11.282  11.658  12.012  12.134
 12.413  12.638  12.773  12.848  12.861  12.967  13.064  13.190
 13.332  13.424  13.541  14.170  14.347  14.663  15.068  15.114
 --------------------------------------------------------------
 
          Ground-State Mulliken Net Atomic Charges

     Atom                 Charge (a.u.)
  ----------------------------------------
      1 C                    -0.092589
      2 C                    -0.129209
      3 C                    -0.080412
      4 C                    -0.118589
      5 N                    -0.145582
      6 C                     0.083076
      7 C                     0.098732
      8 N                    -0.176782
      9 C                    -0.018901
     10 C                    -0.084969
     11 N                    -0.217794
     12 C                     0.053259
     13 C                     0.059425
     14 S                     0.405266
     15 N                    -0.305856
     16 C                    -0.069583
     17 S                     0.183722
     18 C                     0.055941
     19 C                    -0.060300
     20 N                    -0.169071
     21 C                     0.057383
     22 C                    -0.010891
     23 C                    -0.047452
     24 N                    -0.156861
     25 C                    -0.140342
     26 S                     0.105799
     27 C                    -0.045538
     28 C                    -0.155056
     29 C                    -0.182503
     30 H                     0.132895
     31 H                     0.120156
     32 H                     0.119230
     33 H                     0.137461
     34 H                     0.138414
     35 H                     0.128164
     36 H                     0.134055
     37 H                     0.129224
     38 H                     0.130436
     39 H                     0.135644
  ----------------------------------------
  Sum of atomic charges =     0.000000

 -----------------------------------------------------------------
                    Cartesian Multipole Moments
 -----------------------------------------------------------------
    Charge (ESU x 10^10)
                 0.0000
    Dipole Moment (Debye)
         X      -0.2880      Y       1.4558      Z       0.2098
       Tot       1.4988
    Quadrupole Moments (Debye-Ang)
        XX    -151.8203     XY       3.2118     YY    -164.9065
        XZ       4.1875     YZ       0.4019     ZZ    -186.3445
    Octopole Moments (Debye-Ang^2)
       XXX     112.9011    XXY      11.3761    XYY     -42.3446
       YYY      32.6643    XXZ     -26.1729    XYZ      14.5570
       YYZ       9.9196    XZZ       1.9183    YZZ      -6.6945
       ZZZ      -6.9703
    Hexadecapole Moments (Debye-Ang^3)
      XXXX  -15936.2002   XXXY     585.5933   XXYY   -3530.3805
      XYYY    -158.2214   YYYY   -3451.0848   XXXZ     114.9537
      XXYZ      34.7749   XYYZ     -16.8150   YYYZ      26.7072
      XXZZ   -3413.9925   XYZZ     -33.4216   YYZZ    -730.0379
      XZZZ     -19.2507   YZZZ       0.4381   ZZZZ    -320.1581
 -----------------------------------------------------------------
Archival summary:
1\1\mn214\OPT\ProcedureUnspecified\BasisUnspecified\362010\afmv_a\SunJun1817:35:182017SunJun1817:35:182017\0\\#,OPT,ProcedureUnspecified,BasisUnspecified,\\0,1\S\C,1,1.70375\C,2,1.38809,1,109.598\N,3,1.3606,2,125.068,1,179.683,0\C,4,1.2969,3,115.54,2,-179.556,0\H,5,1.08433,4,117.752,3,179.846,0\C,5,1.42919,4,122.847,3,0.171988,0\H,7,1.08462,5,119.378,4,179.971,0\N,7,1.29691,5,123.214,4,0.152525,0\C,9,1.36346,7,115.944,5,-0.230405,0\C,10,1.39448,9,125.927,7,179.511,0\C,2,1.44697,1,122.046,3,-179.317,0\C,12,1.36741,2,127.901,1,150,0\H,13,1.07795,12,122.402,2,1.31389,0\C,13,1.41517,12,113.003,2,-178.95,0\H,15,1.07921,13,123.784,12,-179.87,0\C,15,1.35939,13,112.833,12,0.173724,0\H,17,1.07651,15,128.181,13,-179.771,0\C,11,1.45605,10,129.128,9,1.81659,0\C,19,1.37555,11,122.816,10,8.88932,0\H,20,1.07835,19,119.379,11,-1.07849,0\N,20,1.35587,19,125.464,11,179.082,0\C,22,1.30414,20,121.972,19,-0.56742,0\C,19,1.42848,11,122.884,10,-170.897,0\N,24,1.33231,19,126.452,11,2.25797,0\C,24,1.43196,19,120.434,11,-179.177,0\N,26,1.33455,24,113.05,19,-177.698,0\C,23,1.48435,22,117.334,20,-178.489,0\N,28,1.3311,23,117.659,22,156.247,0\C,29,1.32632,28,117.993,23,-178.562,0\H,30,1.0839,29,115.919,28,179.454,0\C,30,1.38564,29,123.54,28,-0.162259,0\H,32,1.08079,30,120.328,29,-179.773,0\C,32,1.38527,30,118.224,29,0.500187,0\H,34,1.08156,32,120.692,30,179.864,0\C,34,1.38098,32,118.893,30,-0.121217,0\H,36,1.07906,34,121.955,32,179.298,0\S,27,1.6027,26,106.591,24,-0.82154,0\S,17,1.71212,15,111.648,13,-0.42275,0\\\@

 Total job time:  6561.78s(wall), 97934.02s(cpu) 
 Sun Jun 18 17:35:18 2017

        *************************************************************
        *                                                           *
        *  Thank you very much for using Q-Chem.  Have a nice day.  *
        *                                                           *
        *************************************************************


