
Running Job 1 of 1 C169_3/C169_105.qcin
qchem C169_3/C169_105.qcin_28108.0 /tmpu/cab_g/afmv_a/scratch_qchem/qchem28108/ 1
/tmpu/appuserlic/qchem4.4/serial-multicore/exe/qcprog.exe_s C169_3/C169_105.qcin_28108.0 /tmpu/cab_g/afmv_a/scratch_qchem/qchem28108/
Check license passed

                  Welcome to Q-Chem
     A Quantum Leap Into The Future Of Chemistry


 Q-Chem 4.4, Q-Chem, Inc., Pleasanton, CA (2016)

 Y. Shao,  Z. Gan,  E. Epifanovsky,  A. T. B. Gilbert,  M. Wormit,  
 J. Kussmann,  A. W. Lange,  A. Behn,  J. Deng,  X. Feng,  D. Ghosh,  
 M. Goldey,  P. R. Horn,  L. D. Jacobson,  I. Kaliman,  F. Rob,  
 R. Z. Khaliullin,  T. Kus,  A. Landau,  J. Liu,  E. I. Proynov,  Y. M. Rhee,  
 R. M. Richard,  M. A. Rohrdanz,  R. P. Steele,  E. J. Sundstrom,  
 H. L. Woodcock III,  P. M. Zimmerman,  D. Zuev,  B. Albrecht,  E. Alguire,  
 B. Austin,  S. A. Baeppler,  G. J. O. Beran,  Y. A. Bernard,  E. Berquist,  
 K. Brandhorst,  K. B. Bravaya,  S. T. Brown,  D. Casanova,  C.-M. Chang,  
 Y. Chen,  S. H. Chien,  K. D. Closser,  M. P. Coons,  D. L. Crittenden,  
 S. Dasgupta,  M. Diedenhofen,  R. A. DiStasio Jr.,  H. Do,  A. D. Dutoi,  
 R. G. Edgar,  P.-T. Fang,  S. Fatehi,  Q. Feng,  L. Fusti-Molnar,  
 A. Ghysels,  A. Golubeva-Zadorozhnaya,  J. Gomes,  A. Gunina,  
 M. W. D. Hanson-Heine,  P. H. P. Harbach,  A. W. Hauser,  J. E. Herr,  
 E. G. Hohenstein,  Z. C. Holden,  K. Hui,  T.-C. Jagau,  H. Ji,  B. Kaduk,  
 K. Khistyaev,  Jaehoon Kim,  Jihan Kim,  R. A. King,  P. Klunzinger,  
 K. Koh,  D. Kosenkov,  T. Kowalczyk,  C. M. Krauter,  A. Kunitsa,  
 K. U. Lao,  A. Laurent,  K. V. Lawler,  J. Lee,  D. Lefrancois,  S. Lehtola,  
 S. V. Levchenko,  C. Y. Lin,  Y.-S. Lin,  F. Liu,  E. Livshits,  
 R. C. Lochan,  A. Luenser,  P. Manohar,  S. F. Manzer,  S.-P. Mao,  Y. Mao,  
 N. Mardirossian,  A. V. Marenich,  L. A. Martinez-Martinez,  S. A. Maurer,  
 N. J. Mayhall,  J.-M. Mewes,  A. F. Morrison,  K. Nanda,  T. S. Nguyen-Beck,  
 C. M. Oana,  R. Olivares-Amaya,  D. P. O'Neill,  J. A. Parkhill,  
 T. M. Perrine,  R. Peverati,  P. A. Pieniazek,  F. Plasser,  A. Prociuk,  
 D. R. Rehn,  E. Rosta,  N. J. Russ,  N. Sergueev,  S. M. Sharada,  
 S. Sharma,  D. W. Small,  A. Sodt,  T. Stauch,  T. Stein,  D. Stuck,  
 Y.-C. Su,  A. J. W. Thom,  T. Tsuchimochi,  L. Vogt,  O. Vydrov,  T. Wang,  
 M. A. Watson,  J. Wenzel,  A. White,  C. F. Williams,  V. Vanovschi,  
 K. Yao,  S. Yeganeh,  S. R. Yost,  Z.-Q. You,  I. Y. Zhang,  X. Zhang,  
 Y. Zhao,  B. R. Brooks,  G. K. L. Chan,  D. M. Chipman,  C. J. Cramer,  
 W. A. Goddard III,  M. S. Gordon,  W. J. Hehre,  A. Klamt,  
 H. F. Schaefer III,  M. W. Schmidt,  C. D. Sherrill,  D. G. Truhlar,  
 A. Warshel,  X. Xu,  A. Aspuru-Guzik,  R. Baer,  A. T. Bell,  N. A. Besley,  
 J.-D. Chai,  A. Dreuw,  B. D. Dunietz,  T. R. Furlani,  S. R. Gwaltney,  
 C.-P. Hsu,  Y. Jung,  J. Kong,  D. S. Lambrecht,  W. Liang,  C. Ochsenfeld,  
 V. A. Rassolov,  L. V. Slipchenko,  J. E. Subotnik,  T. Van Voorhis,  
 J. M. Herbert,  A. I. Krylov,  P. M. W. Gill,  M. Head-Gordon

 Contributors to earlier versions of Q-Chem not listed above: 
 R. D. Adamson,  J. Baker,  E. F. C. Byrd,  A. K. Chakraborty,  C.-L. Cheng,  
 H. Dachsel,  R. J. Doerksen,  G. Hawkins,  A. Heyden,  S. Hirata,  
 G. Kedziora,  F. J. Keil,  C. Kelley,  P. P. Korambath,  W. Kurlancheek,  
 A. M. Lee,  M. S. Lee,  D. Liotard,  I. Lotan,  P. E. Maslen,  N. Nair,  
 D. Neuhauser,  R. Olson,  B. Peters,  J. Ritchie,  N. E. Schultz,  
 N. Shenvi,  A. C. Simmonett,  K. S. Thanthiriwatte,  Q. Wu,  W. Zhang

 Please cite Q-Chem as follows:
 Y. Shao et al., Mol. Phys. 113, 184-215 (2015)
 DOI: 10.1080/00268976.2014.952696

 Q-Chem 4.4.2 for Intel X86 Linux

 Parts of Q-Chem use Armadillo 5.200.1 (Boston Tea Smuggler).
 http://arma.sourceforge.net/

 Q-Chem begins on Sat Jun 17 07:02:30 2017  

Host: 
0

     Scratch files written to /tmpu/cab_g/afmv_a/scratch_qchem/qchem28108//
 Dec716 11556_ 22328  22283 4050   
Processing $rem in /tmpu/appuserlic/qchem4.4/serial-multicore/config/preferences.
 MEM_TOTAL  2000 
FILE_GEOM_ORG=        593

Checking the input file for inconsistencies... 	...done.

--------------------------------------------------------------
User input:
--------------------------------------------------------------
$comment
OPTIMIZATION
$end

$rem
JOBTYPE OPT
EXCHANGE omegaB97X-D
BASIS cc-pVTZ
$end

$molecule
0 1
C          0.00000        0.00000        0.00000
C         -0.65396       -1.22126       -0.00000
C          1.38563        0.00000        0.00000
C          0.09526       -2.37957        0.00866
N          2.11912       -1.10562        0.01199
C          1.48546       -2.27640        0.02149
C          2.30642       -3.51253        0.03449
N          1.74513       -4.60745       -0.39909
C          3.65824       -3.56714        0.50995
C          2.40434       -5.79109       -0.42442
N          4.38617       -2.58332        1.04242
C          4.35289       -4.81920        0.47143
C          3.70163       -5.99343       -0.01477
S          5.80914       -3.21778        1.41887
N          5.59255       -4.74484        0.95148
C          4.33823       -7.30129       -0.04468
S          6.02589       -7.51949        0.20234
C          3.75434       -8.55173       -0.24928
C          5.99762       -9.21427        0.01351
N          2.43078       -8.79033       -0.46746
C          4.69159       -9.63209       -0.21260
C          7.19111      -10.02404        0.10954
C          2.09912      -10.03238       -0.63993
N          4.30733      -10.92364       -0.39820
C          7.57446      -10.83560        1.14179
S          8.36162      -10.07645       -1.16955
C          3.03978      -11.10696       -0.60697
C          8.81029      -11.48444        0.90728
C          9.35420      -11.16514       -0.29693
H         -0.54853        0.93120        0.00000
H         -1.73532       -1.26909       -0.00410
H          1.93662        0.93286       -0.01167
H         -0.36319       -3.35650        0.00329
H          1.82722       -6.62671       -0.78554
H          1.05088      -10.24576       -0.82054
H          6.97441      -10.95797        2.02767
H          2.69937      -12.12548       -0.75876
H          9.27346      -12.15664        1.61344
H         10.27999      -11.51617       -0.71961
$end

$opt
CONSTRAINT
tors 4 6 7 8 21.82164
tors 10 13 16 17 169.06444
tors 17 19 22 25 105.00000
ENDCONSTRAINT
$end
--------------------------------------------------------------
 ----------------------------------------------------------------
             Standard Nuclear Orientation (Angstroms)
    I     Atom           X                Y                Z
 ----------------------------------------------------------------
    1      C       7.6909772182     0.3729510356    -0.2579502339
    2      C       7.0001332600     1.5383037273     0.0315793822
    3      C       6.9591495498    -0.7793235186    -0.4959882820
    4      C       5.6218931467     1.5028248979     0.0793612074
    5      N       5.6340352927    -0.8292771469    -0.4499039549
    6      C       4.9756175612     0.2913911648    -0.1619288169
    7      C       3.4936016876     0.2348933261    -0.1109519311
    8      N       2.8466082468     1.3553095948    -0.2781487002
    9      C       2.7490903805    -0.9672108728     0.1280254415
   10      C       1.4932857071     1.4151321564    -0.2443485950
   11      N       3.2170893022    -2.1916540452     0.3790714632
   12      C       1.3185576044    -0.8991060042     0.1528117292
   13      C       0.6500397720     0.3481931738    -0.0386948991
   14      S       1.9397090080    -3.1358081191     0.5934785144
   15      N       0.7428674240    -2.0745957102     0.3968180717
   16      C      -0.7968937238     0.4910548749     0.0125490337
   17      S      -1.8651757217    -0.8562725464    -0.0050233605
   18      C      -1.5563019705     1.6584896494     0.0949143658
   19      C      -3.2945351115     0.0717423534     0.0617246020
   20      N      -1.0669569005     2.9290976335     0.1443137484
   21      C      -2.9667798160     1.4207452494     0.1263875612
   22      C      -4.6087806981    -0.5299966486     0.0677500042
   23      C      -1.9513953996     3.8753654580     0.2134383062
   24      N      -3.8658741989     2.4388663105     0.1989362065
   25      C      -5.4655620330    -0.6653279448     1.1254541703
   26      S      -5.3139557545    -1.1922493161    -1.3720629144
   27      C      -3.3588935247     3.6326710611     0.2398623735
   28      C      -6.6766022854    -1.3106682798     0.7787822307
   29      C      -6.7329525275    -1.6576715692    -0.5343535846
   30      H       8.7708072563     0.3551937899    -0.2988203925
   31      H       7.5305392929     2.4628042908     0.2202911116
   32      H       7.4592832009    -1.7096789238    -0.7373575009
   33      H       5.0349246117     2.3824428221     0.2946231653
   34      H       1.0770757121     2.4006344129    -0.3758418486
   35      H      -1.5848147392     4.8958301310     0.2484891948
   36      H      -5.2230421716    -0.3010677164     2.1094848592
   37      H      -4.0483589331     4.4678567805     0.2982098445
   38      H      -7.4681277989    -1.5107810404     1.4848158554
   39      H      -7.5338038893    -2.1549010357    -1.0543223541
 ----------------------------------------------------------------
 Molecular Point Group                 C1    NOp =  1
 Largest Abelian Subgroup              C1    NOp =  1
 Nuclear Repulsion Energy =  2923.4354438600 hartrees
 There are      110 alpha and      110 beta electrons
 Requested basis set is cc-pVTZ
 There are 356 shells and 1022 basis functions

 Total QAlloc Memory Limit   2000 MB
 Mega-Array Size        61 MB
 MEM_STATIC part        62 MB
 A cutoff of  1.0D-11 yielded  30897 shell pairs
 There are    243727 function pairs (    318188 Cartesian)
 
 -------------------------------------------------------
 OpenMP Integral Computing Module                       
 Release: version 1.0, May 2013, Q-Chem Inc. Pittsburgh 
 -------------------------------------------------------
 Integral Job Info:
 Integral job number is                      11
 Integral operator is                         1
 short-range coefficients              22203600
 long-range coefficients              100000000
 Omega coefficients                         200
 if combine SR and LR in K                    1
 Integral screening is                        0
 Integral computing path is                   2
 max size of driver memory is            800000
 size of driver memory is                776718
 size of scratch memory is             26248924
 max col of scratch BK array              10000
 max len of scratch array in speh3          662
 max len of scratch index in speh4           32
 max int batch size is                      520
 min int batch size is                       52
 fixed nKL is                                52
 max L of basis functions is                  3
 order of int derivative is                   0
 number of shells is                        356
 number of basis is                        1177
 number of cartesian basis is              1177
 number of contracted shell pairs         30897
 number of primitive shell pairs          93551
 maxK2 (contraction) of shell pair          121
 max number of K2 of shell pair               1
 max number of CS2 of shell pair           4285
 max number of PS2 of shell pair          12978
 mem total for path MDJ                  839132
 -------------------------------------------------------
 Smallest overlap matrix eigenvalue = 2.88E-05

 Scale SEOQF with 1.000000e-02/1.000000e-01/1.000000e-01

 Standard Electronic Orientation quadrupole field applied
 Nucleus-field energy     =     0.0000000593 hartrees
 Guess from superposition of atomic densities
 Warning:  Energy on first SCF cycle will be non-variational
 Long-range K will be added via erf
 Coulomb attenuation parameter = 0.2 bohr**(-1)
 A restricted hybrid HF-DFT SCF calculation will be
 performed using Pulay DIIS extrapolation
 Exchange:     0.2220 Hartree-Fock + 1.0000 wB97X-D + LR-HF
 Correlation:  1.0000 wB97X-D
 Using SG-2 standard quadrature grid
 Dispersion:   Grimme D
 SCF converges when DIIS error is below 1.0E-08
 using 16 threads for integral computing 
 using 16 threads for integral computing 
 K construction time:  CPU 71.09 s  wall 4.68 s
 -------------------------------------------------------
 OpenMP BLAS3 based DFT computing Module                
 Release: version 1.0, May 2013, Q-Chem Inc. Pittsburgh 
 -------------------------------------------------------
 ---------------------------------------
  Cycle       Energy         DIIS Error
 ---------------------------------------
    1   -2301.4647559368      1.83E-02
 K construction time:  CPU 1116.71 s  wall 73.80 s
    2   -2290.8997109872      1.32E-03
 K construction time:  CPU 1067.49 s  wall 70.47 s
    3   -2290.9414952469      1.31E-03
 K construction time:  CPU 1016.00 s  wall 67.06 s
    4   -2291.1394395836      2.07E-04
 K construction time:  CPU 938.58 s  wall 62.09 s
    5   -2291.1435358673      1.33E-04
 K construction time:  CPU 888.35 s  wall 58.81 s
    6   -2291.1455712650      4.69E-05
 K construction time:  CPU 839.00 s  wall 55.39 s
    7   -2291.1458517418      1.72E-05
 K construction time:  CPU 778.37 s  wall 51.42 s
    8   -2291.1459005109      5.33E-06
 K construction time:  CPU 747.52 s  wall 49.46 s
    9   -2291.1459108332      3.67E-06
 K construction time:  CPU 708.89 s  wall 46.80 s
   10   -2291.1459144064      1.32E-06
 K construction time:  CPU 644.72 s  wall 42.48 s
   11   -2291.1459149549      7.22E-07
 K construction time:  CPU 610.34 s  wall 40.17 s
   12   -2291.1459151133      2.17E-07
 K construction time:  CPU 533.74 s  wall 35.17 s
   13   -2291.1459151287      1.15E-07
 K construction time:  CPU 474.75 s  wall 31.23 s
   14   -2291.1459151308      3.15E-08
 K construction time:  CPU 396.16 s  wall 26.08 s
   15   -2291.1459151306      1.63E-08
 K construction time:  CPU 1115.00 s  wall 73.72 s
   16   -2291.1459151314      4.78E-09 Convergence criterion met
 ---------------------------------------
 SCF time:  CPU 15911.12 s  wall 1078.15 s
 SCF   energy in the final basis set = -2291.1459151314
 Total energy in the final basis set = -2291.1459151314
 
 --------------------------------------------------------------
 
                    Orbital Energies (a.u.)
 --------------------------------------------------------------
 
 Alpha MOs
 -- Occupied --
-89.147 -89.099 -89.078 -14.483 -14.479 -14.461 -14.459 -14.445
-14.434 -10.355 -10.353 -10.351 -10.344 -10.343 -10.342 -10.340
-10.339 -10.337 -10.337 -10.331 -10.330 -10.327 -10.324 -10.318
-10.310 -10.301 -10.298 -10.296 -10.294  -8.157  -8.114  -8.093
 -6.107  -6.101  -6.101  -6.062  -6.059  -6.057  -6.043  -6.039
 -6.036  -1.143  -1.100  -1.069  -1.049  -1.027  -1.012  -1.002
 -0.985  -0.925  -0.912  -0.896  -0.878  -0.867  -0.853  -0.838
 -0.811  -0.777  -0.770  -0.748  -0.738  -0.730  -0.716  -0.711
 -0.670  -0.657  -0.646  -0.629  -0.628  -0.620  -0.608  -0.604
 -0.586  -0.576  -0.568  -0.561  -0.558  -0.545  -0.543  -0.527
 -0.512  -0.507  -0.500  -0.498  -0.493  -0.492  -0.484  -0.482
 -0.475  -0.468  -0.462  -0.461  -0.448  -0.438  -0.428  -0.426
 -0.420  -0.410  -0.394  -0.376  -0.371  -0.360  -0.357  -0.343
 -0.338  -0.336  -0.334  -0.333  -0.318  -0.277
 -- Virtual --
 -0.053  -0.022   0.025   0.039   0.042   0.051   0.064   0.071
  0.083   0.097   0.105   0.113   0.123   0.125   0.129   0.132
  0.150   0.154   0.158   0.163   0.174   0.175   0.182   0.187
  0.190   0.205   0.208   0.216   0.222   0.231   0.239   0.248
  0.257   0.262   0.270   0.275   0.276   0.285   0.287   0.291
  0.297   0.303   0.307   0.310   0.318   0.323   0.323   0.327
  0.334   0.339   0.342   0.345   0.347   0.350   0.353   0.356
  0.361   0.367   0.370   0.375   0.380   0.381   0.386   0.388
  0.389   0.393   0.394   0.396   0.400   0.401   0.409   0.412
  0.416   0.418   0.420   0.427   0.430   0.431   0.436   0.437
  0.441   0.446   0.448   0.452   0.454   0.459   0.464   0.465
  0.467   0.469   0.474   0.477   0.483   0.487   0.490   0.495
  0.500   0.503   0.506   0.512   0.514   0.517   0.519   0.522
  0.524   0.530   0.532   0.534   0.538   0.542   0.546   0.550
  0.553   0.558   0.568   0.571   0.580   0.580   0.586   0.589
  0.596   0.604   0.607   0.611   0.616   0.627   0.630   0.638
  0.641   0.647   0.649   0.654   0.655   0.664   0.667   0.671
  0.675   0.678   0.684   0.690   0.697   0.704   0.711   0.717
  0.719   0.726   0.728   0.736   0.738   0.745   0.747   0.755
  0.763   0.766   0.766   0.772   0.777   0.777   0.782   0.791
  0.792   0.795   0.798   0.807   0.813   0.819   0.823   0.824
  0.826   0.831   0.835   0.840   0.847   0.849   0.853   0.855
  0.859   0.865   0.870   0.872   0.880   0.881   0.891   0.901
  0.902   0.908   0.915   0.916   0.922   0.929   0.931   0.938
  0.942   0.947   0.952   0.954   0.956   0.960   0.963   0.971
  0.974   0.979   0.988   0.990   0.999   1.005   1.007   1.018
  1.020   1.027   1.033   1.039   1.046   1.052   1.056   1.059
  1.063   1.072   1.080   1.083   1.086   1.093   1.094   1.096
  1.103   1.105   1.112   1.118   1.122   1.129   1.135   1.138
  1.153   1.156   1.161   1.167   1.176   1.185   1.188   1.197
  1.198   1.205   1.215   1.217   1.233   1.236   1.242   1.253
  1.262   1.265   1.270   1.276   1.279   1.287   1.296   1.300
  1.301   1.310   1.318   1.329   1.334   1.340   1.349   1.354
  1.359   1.362   1.371   1.373   1.379   1.383   1.384   1.389
  1.397   1.401   1.409   1.418   1.425   1.428   1.436   1.442
  1.444   1.451   1.453   1.460   1.475   1.477   1.480   1.483
  1.490   1.496   1.503   1.507   1.512   1.517   1.522   1.533
  1.543   1.550   1.565   1.569   1.574   1.584   1.586   1.595
  1.611   1.612   1.613   1.623   1.633   1.636   1.643   1.646
  1.650   1.661   1.668   1.671   1.682   1.691   1.696   1.701
  1.706   1.716   1.721   1.723   1.727   1.741   1.750   1.753
  1.761   1.768   1.777   1.778   1.788   1.796   1.803   1.805
  1.816   1.822   1.841   1.849   1.866   1.876   1.887   1.890
  1.895   1.902   1.913   1.918   1.935   1.936   1.940   1.944
  1.956   1.968   1.976   1.982   1.987   1.990   2.000   2.010
  2.012   2.022   2.034   2.039   2.045   2.053   2.057   2.068
  2.077   2.092   2.102   2.105   2.109   2.111   2.123   2.131
  2.135   2.148   2.159   2.174   2.177   2.184   2.192   2.197
  2.205   2.212   2.216   2.227   2.231   2.244   2.252   2.257
  2.269   2.278   2.282   2.292   2.295   2.299   2.313   2.317
  2.323   2.328   2.336   2.343   2.349   2.360   2.366   2.373
  2.377   2.386   2.387   2.400   2.405   2.407   2.421   2.424
  2.434   2.445   2.452   2.459   2.461   2.468   2.472   2.479
  2.492   2.499   2.502   2.515   2.517   2.522   2.531   2.533
  2.538   2.540   2.545   2.547   2.553   2.562   2.574   2.587
  2.606   2.611   2.628   2.630   2.639   2.643   2.655   2.660
  2.667   2.672   2.678   2.686   2.694   2.699   2.712   2.723
  2.729   2.733   2.744   2.751   2.756   2.767   2.777   2.778
  2.786   2.789   2.796   2.804   2.809   2.815   2.820   2.829
  2.832   2.846   2.847   2.857   2.869   2.876   2.879   2.884
  2.889   2.894   2.905   2.915   2.918   2.919   2.928   2.933
  2.937   2.944   2.949   2.952   2.957   2.965   2.976   2.979
  2.980   2.990   3.002   3.003   3.010   3.013   3.015   3.021
  3.028   3.030   3.036   3.041   3.044   3.056   3.058   3.061
  3.064   3.069   3.070   3.077   3.082   3.083   3.084   3.088
  3.093   3.098   3.101   3.108   3.114   3.121   3.125   3.135
  3.143   3.146   3.149   3.157   3.158   3.163   3.167   3.172
  3.174   3.179   3.187   3.190   3.198   3.200   3.205   3.209
  3.211   3.214   3.219   3.224   3.229   3.232   3.236   3.238
  3.242   3.250   3.250   3.260   3.260   3.266   3.268   3.277
  3.278   3.286   3.287   3.290   3.294   3.299   3.303   3.307
  3.310   3.316   3.323   3.329   3.334   3.338   3.343   3.345
  3.352   3.356   3.365   3.375   3.381   3.388   3.392   3.398
  3.399   3.404   3.406   3.417   3.419   3.427   3.430   3.436
  3.442   3.444   3.445   3.457   3.465   3.470   3.474   3.479
  3.486   3.488   3.494   3.497   3.501   3.510   3.515   3.520
  3.529   3.530   3.537   3.541   3.565   3.567   3.570   3.583
  3.596   3.600   3.606   3.617   3.621   3.622   3.635   3.641
  3.659   3.666   3.670   3.682   3.690   3.694   3.698   3.704
  3.713   3.718   3.724   3.736   3.737   3.741   3.753   3.758
  3.768   3.772   3.780   3.786   3.792   3.799   3.804   3.814
  3.823   3.828   3.837   3.842   3.850   3.855   3.874   3.879
  3.890   3.901   3.905   3.914   3.917   3.921   3.931   3.932
  3.934   3.939   3.942   3.948   3.955   3.960   3.975   3.978
  3.986   3.993   4.003   4.010   4.015   4.021   4.027   4.036
  4.050   4.058   4.063   4.069   4.077   4.090   4.094   4.099
  4.103   4.112   4.122   4.132   4.149   4.155   4.163   4.173
  4.177   4.186   4.193   4.199   4.203   4.210   4.213   4.222
  4.229   4.241   4.245   4.248   4.259   4.262   4.268   4.275
  4.288   4.293   4.300   4.311   4.319   4.322   4.329   4.333
  4.340   4.354   4.359   4.364   4.367   4.378   4.385   4.390
  4.403   4.415   4.430   4.433   4.438   4.440   4.443   4.448
  4.468   4.484   4.491   4.499   4.517   4.524   4.527   4.538
  4.550   4.553   4.561   4.568   4.586   4.592   4.605   4.610
  4.627   4.631   4.644   4.653   4.654   4.670   4.682   4.706
  4.708   4.716   4.722   4.735   4.761   4.771   4.775   4.790
  4.796   4.806   4.813   4.817   4.829   4.835   4.846   4.864
  4.874   4.880   4.887   4.895   4.901   4.916   4.918   4.935
  4.938   4.949   4.950   4.966   4.973   4.982   4.985   4.990
  4.996   5.004   5.005   5.013   5.028   5.039   5.045   5.053
  5.069   5.080   5.093   5.098   5.111   5.114   5.116   5.121
  5.132   5.141   5.149   5.158   5.168   5.178   5.184   5.191
  5.205   5.213   5.241   5.258   5.269   5.302   5.306   5.313
  5.325   5.342   5.350   5.375   5.380   5.401   5.420   5.428
  5.450   5.464   5.478   5.488   5.496   5.498   5.516   5.546
  5.557   5.563   5.576   5.590   5.598   5.608   5.610   5.648
  5.674   5.696   5.719   5.721   5.745   5.753   5.757   5.792
  5.797   5.822   5.839   5.857   5.873   5.887   5.906   5.917
  5.944   5.963   6.000   6.017   6.057   6.086   6.132   6.180
  6.199   6.238   6.251   6.268   6.306   6.355   6.383   6.405
  6.445   6.490   6.603   6.873   6.990   7.078   8.073   8.925
  9.788  10.072  10.662  11.140  11.317  11.617  12.011  12.108
 12.399  12.643  12.788  12.848  12.873  12.990  13.106  13.174
 13.322  13.389  13.432  14.017  14.229  14.658  15.063  15.089
 --------------------------------------------------------------
 
          Ground-State Mulliken Net Atomic Charges

     Atom                 Charge (a.u.)
  ----------------------------------------
      1 C                    -0.092317
      2 C                    -0.129327
      3 C                    -0.080261
      4 C                    -0.117545
      5 N                    -0.145332
      6 C                     0.082180
      7 C                     0.100231
      8 N                    -0.177933
      9 C                    -0.016735
     10 C                    -0.080685
     11 N                    -0.217477
     12 C                     0.051754
     13 C                     0.057144
     14 S                     0.405649
     15 N                    -0.304950
     16 C                    -0.069217
     17 S                     0.218729
     18 C                     0.046822
     19 C                    -0.102987
     20 N                    -0.169803
     21 C                     0.044544
     22 C                    -0.034434
     23 C                    -0.049768
     24 N                    -0.129955
     25 C                    -0.139497
     26 S                     0.125440
     27 C                    -0.050765
     28 C                    -0.147770
     29 C                    -0.183283
     30 H                     0.133122
     31 H                     0.119996
     32 H                     0.120242
     33 H                     0.138346
     34 H                     0.138287
     35 H                     0.128023
     36 H                     0.134578
     37 H                     0.132263
     38 H                     0.128398
     39 H                     0.134293
  ----------------------------------------
  Sum of atomic charges =     0.000000

 -----------------------------------------------------------------
                    Cartesian Multipole Moments
 -----------------------------------------------------------------
    Charge (ESU x 10^10)
                 0.0000
    Dipole Moment (Debye)
         X       0.0882      Y       1.1829      Z       1.0643
       Tot       1.5936
    Quadrupole Moments (Debye-Ang)
        XX    -154.5166     XY       6.4817     YY    -167.8956
        XZ      -1.0507     YZ       1.6844     ZZ    -182.6027
    Octopole Moments (Debye-Ang^2)
       XXX     137.1383    XXY      -6.7959    XYY     -19.5634
       YYY      48.2538    XXZ      12.6149    XYZ      -1.5559
       YYZ       6.3214    XZZ     -25.4447    YZZ     -11.6970
       ZZZ       6.0926
    Hexadecapole Moments (Debye-Ang^3)
      XXXX  -16345.7879   XXXY     770.1550   XXYY   -3625.0946
      XYYY    -242.2392   YYYY   -3245.2701   XXXZ     -91.7300
      XXYZ     101.9423   XYYZ      35.6603   YYYZ      16.9182
      XXZZ   -3342.2273   XYZZ       0.1819   YYZZ    -712.8215
      XZZZ      -1.9883   YZZZ      -3.6411   ZZZZ    -504.0283
 -----------------------------------------------------------------
 Calculating analytic gradient of the SCF energy
 K construction time:  CPU 2902.72 s  wall 183.87 s
 Gradient of SCF Energy
            1           2           3           4           5           6
    1   0.0001951  -0.0013413   0.0005620   0.0015016   0.0002499  -0.0013635
    2  -0.0000443  -0.0005828  -0.0001576  -0.0000334  -0.0003264   0.0001143
    3  -0.0000397  -0.0003649   0.0000707  -0.0001755   0.0001278  -0.0000262
            7           8           9          10          11          12
    1   0.0012300  -0.0010788  -0.0006875   0.0007530  -0.0000634   0.0002293
    2   0.0002992   0.0004957  -0.0000409   0.0001268   0.0000114  -0.0003383
    3   0.0003526  -0.0002192  -0.0005209  -0.0005026   0.0001655   0.0003624
           13          14          15          16          17          18
    1  -0.0025165  -0.0000741   0.0005062   0.0029482   0.0003891   0.0003720
    2  -0.0003112  -0.0003961   0.0006490   0.0013194  -0.0009603   0.0001308
    3   0.0000188   0.0002344  -0.0005125  -0.0009031   0.0012457   0.0004876
           19          20          21          22          23          24
    1  -0.0105634   0.0000052   0.0001219   0.0107623  -0.0010254   0.0016613
    2  -0.0091767  -0.0005110   0.0040675   0.0056647  -0.0011847  -0.0009176
    3  -0.0000441  -0.0001366   0.0004539  -0.0018625   0.0002070  -0.0002968
           25          26          27          28          29          30
    1  -0.0029590  -0.0011049   0.0011409   0.0011168  -0.0010050   0.0000065
    2  -0.0013450   0.0004877   0.0028210   0.0002084  -0.0010940   0.0002150
    3   0.0062520  -0.0026674   0.0000789  -0.0011174  -0.0001066   0.0002810
           31          32          33          34          35          36
    1   0.0002497  -0.0002975   0.0000864   0.0002457   0.0002066  -0.0002483
    2   0.0005198   0.0001689   0.0001134  -0.0002239   0.0000725   0.0002112
    3   0.0001394   0.0000686  -0.0000013   0.0004330  -0.0003471  -0.0017546
           37          38          39
    1  -0.0005682   0.0002640   0.0000932
    2  -0.0002504   0.0001622   0.0000359
    3   0.0000554   0.0004764   0.0000875
 Max gradient component =       1.076E-02
 RMS gradient           =       2.029E-03
 Gradient time:  CPU 3356.87 s  wall 214.88 s
 Geometry Optimization Parameters
   NAtoms,    NIC,     NZ,  NCons,   NDum,   NFix, NCnnct, MaxDiis
       39     293       0       3       0       0       0       0


** CONSTRAINED OPTIMIZATION IN DELOCALIZED INTERNAL COORDINATES **
   Searching for a Minimum

   Optimization Cycle:   1

                       Coordinates (Angstroms)
     ATOM                X               Y               Z
      1  C         7.6909772182    0.3729510356   -0.2579502339
      2  C         7.0001332600    1.5383037273    0.0315793822
      3  C         6.9591495498   -0.7793235186   -0.4959882820
      4  C         5.6218931467    1.5028248979    0.0793612074
      5  N         5.6340352927   -0.8292771469   -0.4499039549
      6  C         4.9756175612    0.2913911648   -0.1619288169
      7  C         3.4936016876    0.2348933261   -0.1109519311
      8  N         2.8466082468    1.3553095948   -0.2781487002
      9  C         2.7490903805   -0.9672108728    0.1280254415
     10  C         1.4932857071    1.4151321564   -0.2443485950
     11  N         3.2170893022   -2.1916540452    0.3790714632
     12  C         1.3185576044   -0.8991060042    0.1528117292
     13  C         0.6500397720    0.3481931738   -0.0386948991
     14  S         1.9397090080   -3.1358081191    0.5934785144
     15  N         0.7428674240   -2.0745957102    0.3968180717
     16  C        -0.7968937238    0.4910548749    0.0125490337
     17  S        -1.8651757217   -0.8562725464   -0.0050233605
     18  C        -1.5563019705    1.6584896494    0.0949143658
     19  C        -3.2945351115    0.0717423534    0.0617246020
     20  N        -1.0669569005    2.9290976335    0.1443137484
     21  C        -2.9667798160    1.4207452494    0.1263875612
     22  C        -4.6087806981   -0.5299966486    0.0677500042
     23  C        -1.9513953996    3.8753654580    0.2134383062
     24  N        -3.8658741989    2.4388663105    0.1989362065
     25  C        -5.4655620330   -0.6653279448    1.1254541703
     26  S        -5.3139557545   -1.1922493161   -1.3720629144
     27  C        -3.3588935247    3.6326710611    0.2398623735
     28  C        -6.6766022854   -1.3106682798    0.7787822307
     29  C        -6.7329525275   -1.6576715692   -0.5343535846
     30  H         8.7708072563    0.3551937899   -0.2988203925
     31  H         7.5305392929    2.4628042908    0.2202911116
     32  H         7.4592832009   -1.7096789238   -0.7373575009
     33  H         5.0349246117    2.3824428221    0.2946231653
     34  H         1.0770757121    2.4006344129   -0.3758418486
     35  H        -1.5848147392    4.8958301310    0.2484891948
     36  H        -5.2230421716   -0.3010677164    2.1094848592
     37  H        -4.0483589331    4.4678567805    0.2982098445
     38  H        -7.4681277989   -1.5107810404    1.4848158554
     39  H        -7.5338038893   -2.1549010357   -1.0543223541
   Point Group: c1    Number of degrees of freedom:   111


   Energy is  -2291.145915131

              Constraints and their Current Values
                                        Value     Constraint
   Dihedral:        4   6   7   8       21.915       21.822
   Dihedral:       10  13  16  17      169.085      169.064
   Dihedral:       17  19  22  25      105.000      105.000

 Attempting to Generate Delocalized Internal Coordinates

   Using Lagrange Multiplier Algorithm


114 Hessian modes will be used to form the next step
  Hessian Eigenvalues:
    -0.977753   -0.977753   -0.977753    0.045000    0.045000    0.045000
     0.045000    0.045000    0.045000    0.045000    0.045000    0.045000
     0.045000    0.045000    0.045000    0.045000    0.045001    0.045001
     0.045001    0.045001    0.045001    0.045001    0.045001    0.045002
     0.045002    0.045002    0.045002    0.045003    0.045003    0.045004
     0.045004    0.045007    0.045008    0.045011    0.045025    0.045042
     0.159985    0.159992    0.159996    0.159998    0.159999    0.159999
     0.160000    0.160000    0.160000    0.160000    0.219998    0.221296
     0.223765    0.224234    0.233056    0.237962    0.243336    0.244277
     0.249685    0.249909    0.249932    0.249960    0.249971    0.249981
     0.249981    0.249983    0.249989    0.249990    0.249993    0.249993
     0.249995    0.312597    0.327535    0.334454    0.341192    0.341256
     0.354114    0.354472    0.355757    0.357029    0.359040    0.360705
     0.360954    0.362567    0.363656    0.364140    0.369052    0.372793
     0.376138    0.388453    0.390986    0.406991    0.407223    0.418675
     0.432515    0.440848    0.460521    0.465839    0.471161    0.473690
     0.482790    0.484038    0.485870    0.485956    0.504407    0.517477
     0.518994    0.525383    0.557629    0.572590    0.582389    0.589743
     0.639523    0.655133    0.663889    1.022753    1.022753    1.022753

 Minimum Search - Taking P-RFO Step
 Searching for Lamda that Maximizes Along the Constraint modes Only
 Value Taken    Lamda =   0.00000555
 Searching for Lamda that Minimizes Along All other modes
 Value Taken    Lamda =  -0.00061105
 Step Taken.  Stepsize is  0.068947

                             Maximum     Tolerance    Cnvgd?
         Gradient            0.004900       0.000300      NO
         Displacement        0.030103       0.001200      NO
         Energy change     *********       0.000001      NO


 New Cartesian Coordinates Obtained by Inverse Iteration

 Displacement from previous Coordinates is:  0.379112
 ----------------------------------------------------------------
             Standard Nuclear Orientation (Angstroms)
    I     Atom           X                Y                Z
 ----------------------------------------------------------------
    1      C       7.6913645855     0.3465569168    -0.2847028922
    2      C       7.0151381998     1.5151476928     0.0265311211
    3      C       6.9471230095    -0.7977333405    -0.5219958062
    4      C       5.6362206176     1.4906004681     0.0924945759
    5      N       5.6228994500    -0.8375638147    -0.4565981609
    6      C       4.9788326867     0.2858012808    -0.1496119627
    7      C       3.4965042310     0.2412071856    -0.0897628361
    8      N       2.8585601556     1.3680179717    -0.2466999043
    9      C       2.7453487702    -0.9561302077     0.1468633321
   10      C       1.5049621696     1.4382501263    -0.2141546845
   11      N       3.2052385381    -2.1851775146     0.3891659839
   12      C       1.3153950481    -0.8774966179     0.1727622091
   13      C       0.6559351265     0.3747875995    -0.0173153074
   14      S       1.9208436019    -3.1202789564     0.6003998170
   15      N       0.7306908151    -2.0501536536     0.4121414916
   16      C      -0.7937057785     0.5172064369     0.0219007070
   17      S      -1.8496121024    -0.8364701528    -0.0073133681
   18      C      -1.5621256061     1.6805924267     0.0947233492
   19      C      -3.2819301271     0.0825889091     0.0488481299
   20      N      -1.0864442367     2.9567026603     0.1517755281
   21      C      -2.9702460192     1.4293563894     0.1118480956
   22      C      -4.6003368815    -0.5362941297     0.0586301418
   23      C      -1.9828095841     3.8923104848     0.2147617614
   24      N      -3.8847652748     2.4344955716     0.1792281167
   25      C      -5.4542933657    -0.6694005572     1.1133213625
   26      S      -5.2894977226    -1.2263173483    -1.3707013702
   27      C      -3.3886358204     3.6314563233     0.2270095787
   28      C      -6.6633006150    -1.3234778124     0.7733533428
   29      C      -6.7119026715    -1.6828147038    -0.5362368290
   30      H       8.7701161842     0.3190115309    -0.3445317263
   31      H       7.5558507745     2.4328266491     0.2142601716
   32      H       7.4374439716    -1.7293729258    -0.7799702121
   33      H       5.0580264262     2.3724964054     0.3214056988
   34      H       1.0942800242     2.4262921799    -0.3481427640
   35      H      -1.6303545570     4.9171388665     0.2600773794
   36      H      -5.2152883394    -0.2974086828     2.0978491549
   37      H      -4.0840410511     4.4616150377     0.2817507599
   38      H      -7.4573607095    -1.5220227885     1.4767837456
   39      H      -7.5076458858    -2.1901424506    -1.0546726566
 ----------------------------------------------------------------
 Molecular Point Group                 C1    NOp =  1
 Largest Abelian Subgroup              C1    NOp =  1
 Nuclear Repulsion Energy =  2924.4256297800 hartrees
 There are      110 alpha and      110 beta electrons
 Applying Cartesian multipole field
    Component          Value
    ---------          -----
     (2,0,0)        1.00000E-12
     (0,2,0)        2.00000E-11
     (0,0,2)       -3.00000E-11
 Nucleus-field energy     =     0.0000000594 hartrees
 Requested basis set is cc-pVTZ
 There are 356 shells and 1022 basis functions
 A cutoff of  1.0D-11 yielded  30895 shell pairs
 There are    243577 function pairs (    317957 Cartesian)
 Smallest overlap matrix eigenvalue = 2.84E-05
 Guess MOs from SCF MO coefficient file
 Reading MOs from coefficient file
 Reading MOs from coefficient file
 Long-range K will be added via erf
 Coulomb attenuation parameter = 0.2 bohr**(-1)
 A restricted hybrid HF-DFT SCF calculation will be
 performed using Pulay DIIS extrapolation
 Exchange:     0.2220 Hartree-Fock + 1.0000 wB97X-D + LR-HF
 Correlation:  1.0000 wB97X-D
 Using SG-2 standard quadrature grid
 Dispersion:   Grimme D
 SCF converges when DIIS error is below 1.0E-08
 Geometry optimization detected.  Setting ReadMinima to 0
 Setting SaveMinima to 0
 using 16 threads for integral computing 
 using 16 threads for integral computing 
 K construction time:  CPU 1116.96 s  wall 73.80 s
 -------------------------------------------------------
 OpenMP BLAS3 based DFT computing Module                
 Release: version 1.0, May 2013, Q-Chem Inc. Pittsburgh 
 -------------------------------------------------------
 ---------------------------------------
  Cycle       Energy         DIIS Error
 ---------------------------------------
    1   -2291.1464042760      2.14E-04
 K construction time:  CPU 1118.70 s  wall 73.86 s
    2   -2291.1461164127      2.35E-05
 K construction time:  CPU 814.79 s  wall 53.87 s
    3   -2291.1461894167      2.29E-05
 K construction time:  CPU 772.61 s  wall 51.08 s
    4   -2291.1462453268      8.94E-06
 K construction time:  CPU 724.53 s  wall 47.88 s
    5   -2291.1462560111      3.32E-06
 K construction time:  CPU 668.19 s  wall 44.05 s
    6   -2291.1462577520      1.19E-06
 K construction time:  CPU 599.21 s  wall 39.52 s
    7   -2291.1462579898      4.03E-07
 K construction time:  CPU 540.19 s  wall 35.57 s
    8   -2291.1462580252      1.76E-07
 K construction time:  CPU 501.38 s  wall 32.94 s
    9   -2291.1462580323      8.02E-08
 K construction time:  CPU 429.44 s  wall 28.15 s
   10   -2291.1462580339      3.47E-08
 K construction time:  CPU 386.45 s  wall 25.39 s
   11   -2291.1462580318      1.48E-08
 K construction time:  CPU 337.06 s  wall 22.12 s
   12   -2291.1462580294      6.52E-09 Convergence criterion met
 ---------------------------------------
 SCF time:  CPU 10804.98 s  wall 732.10 s
 SCF   energy in the final basis set = -2291.1462580294
 Total energy in the final basis set = -2291.1462580294
 
 --------------------------------------------------------------
 
                    Orbital Energies (a.u.)
 --------------------------------------------------------------
 
 Alpha MOs
 -- Occupied --
-89.147 -89.099 -89.078 -14.483 -14.480 -14.461 -14.459 -14.446
-14.434 -10.356 -10.353 -10.351 -10.344 -10.343 -10.341 -10.340
-10.338 -10.337 -10.336 -10.331 -10.331 -10.327 -10.324 -10.317
-10.310 -10.301 -10.299 -10.295 -10.294  -8.157  -8.113  -8.093
 -6.107  -6.101  -6.101  -6.062  -6.058  -6.057  -6.042  -6.039
 -6.036  -1.144  -1.100  -1.069  -1.049  -1.028  -1.013  -1.003
 -0.986  -0.925  -0.912  -0.896  -0.878  -0.867  -0.853  -0.838
 -0.811  -0.777  -0.771  -0.749  -0.738  -0.730  -0.716  -0.710
 -0.670  -0.656  -0.646  -0.629  -0.628  -0.620  -0.608  -0.604
 -0.586  -0.576  -0.568  -0.561  -0.558  -0.545  -0.543  -0.527
 -0.512  -0.507  -0.499  -0.498  -0.493  -0.491  -0.485  -0.481
 -0.475  -0.468  -0.462  -0.461  -0.449  -0.439  -0.428  -0.426
 -0.420  -0.411  -0.394  -0.376  -0.371  -0.360  -0.357  -0.343
 -0.338  -0.337  -0.334  -0.333  -0.319  -0.277
 -- Virtual --
 -0.053  -0.021   0.025   0.040   0.042   0.051   0.065   0.071
  0.083   0.097   0.106   0.114   0.123   0.125   0.129   0.132
  0.150   0.154   0.158   0.163   0.174   0.175   0.182   0.187
  0.191   0.204   0.208   0.216   0.222   0.231   0.239   0.248
  0.257   0.262   0.270   0.274   0.276   0.285   0.287   0.291
  0.297   0.303   0.307   0.310   0.318   0.322   0.323   0.327
  0.333   0.339   0.341   0.345   0.347   0.351   0.353   0.356
  0.361   0.367   0.370   0.376   0.380   0.382   0.386   0.388
  0.389   0.393   0.394   0.396   0.400   0.401   0.409   0.412
  0.416   0.418   0.420   0.428   0.431   0.432   0.436   0.437
  0.441   0.446   0.449   0.452   0.454   0.459   0.464   0.465
  0.468   0.469   0.474   0.477   0.483   0.487   0.490   0.495
  0.499   0.503   0.506   0.512   0.513   0.517   0.518   0.522
  0.524   0.530   0.532   0.534   0.538   0.542   0.546   0.550
  0.552   0.559   0.568   0.571   0.580   0.580   0.587   0.589
  0.596   0.604   0.606   0.611   0.617   0.627   0.630   0.637
  0.641   0.647   0.649   0.654   0.656   0.665   0.666   0.671
  0.675   0.678   0.685   0.691   0.697   0.705   0.711   0.717
  0.720   0.727   0.728   0.736   0.738   0.744   0.747   0.754
  0.763   0.766   0.766   0.773   0.776   0.778   0.782   0.791
  0.792   0.796   0.798   0.807   0.813   0.818   0.824   0.824
  0.826   0.831   0.836   0.839   0.846   0.850   0.853   0.856
  0.859   0.866   0.870   0.871   0.881   0.881   0.891   0.899
  0.902   0.908   0.915   0.917   0.922   0.930   0.931   0.938
  0.942   0.948   0.952   0.954   0.956   0.960   0.963   0.971
  0.974   0.979   0.988   0.990   0.999   1.006   1.008   1.018
  1.020   1.027   1.033   1.039   1.046   1.052   1.056   1.059
  1.064   1.072   1.080   1.084   1.087   1.093   1.095   1.096
  1.102   1.105   1.112   1.118   1.123   1.127   1.135   1.138
  1.153   1.156   1.161   1.166   1.176   1.184   1.188   1.197
  1.199   1.204   1.215   1.216   1.233   1.237   1.243   1.253
  1.262   1.265   1.272   1.277   1.280   1.287   1.296   1.300
  1.302   1.310   1.319   1.328   1.334   1.340   1.349   1.355
  1.360   1.362   1.371   1.373   1.379   1.382   1.384   1.389
  1.396   1.401   1.409   1.418   1.425   1.427   1.436   1.442
  1.443   1.451   1.453   1.460   1.474   1.475   1.480   1.482
  1.489   1.496   1.501   1.507   1.512   1.517   1.522   1.531
  1.544   1.549   1.565   1.570   1.574   1.584   1.586   1.596
  1.610   1.612   1.613   1.621   1.633   1.636   1.644   1.646
  1.650   1.661   1.668   1.671   1.683   1.691   1.696   1.701
  1.705   1.716   1.721   1.723   1.726   1.740   1.750   1.753
  1.762   1.768   1.777   1.779   1.789   1.796   1.802   1.806
  1.818   1.823   1.842   1.850   1.867   1.876   1.887   1.891
  1.895   1.902   1.914   1.919   1.935   1.936   1.941   1.946
  1.957   1.969   1.977   1.982   1.987   1.991   2.000   2.011
  2.012   2.023   2.035   2.039   2.045   2.053   2.057   2.069
  2.076   2.091   2.101   2.105   2.109   2.112   2.123   2.131
  2.135   2.147   2.158   2.174   2.176   2.183   2.193   2.197
  2.205   2.212   2.216   2.227   2.231   2.246   2.252   2.258
  2.270   2.277   2.282   2.291   2.295   2.298   2.313   2.317
  2.323   2.329   2.336   2.343   2.348   2.361   2.366   2.372
  2.378   2.385   2.387   2.399   2.405   2.407   2.420   2.423
  2.434   2.445   2.452   2.459   2.460   2.469   2.472   2.478
  2.493   2.499   2.502   2.514   2.517   2.522   2.531   2.533
  2.539   2.542   2.545   2.547   2.552   2.563   2.575   2.588
  2.605   2.611   2.629   2.631   2.639   2.643   2.655   2.661
  2.666   2.671   2.679   2.687   2.694   2.700   2.713   2.723
  2.730   2.733   2.744   2.752   2.756   2.767   2.777   2.778
  2.786   2.789   2.797   2.803   2.808   2.816   2.820   2.828
  2.832   2.845   2.847   2.856   2.869   2.877   2.879   2.882
  2.889   2.893   2.904   2.915   2.919   2.920   2.928   2.933
  2.937   2.945   2.949   2.952   2.957   2.966   2.976   2.979
  2.981   2.990   3.002   3.003   3.010   3.014   3.016   3.022
  3.028   3.031   3.035   3.041   3.043   3.056   3.058   3.061
  3.064   3.069   3.070   3.077   3.082   3.083   3.084   3.088
  3.092   3.098   3.101   3.108   3.115   3.121   3.124   3.134
  3.142   3.146   3.149   3.157   3.158   3.163   3.167   3.171
  3.173   3.180   3.187   3.190   3.197   3.200   3.205   3.210
  3.213   3.213   3.219   3.226   3.230   3.232   3.236   3.237
  3.242   3.249   3.251   3.260   3.260   3.267   3.268   3.277
  3.278   3.286   3.288   3.290   3.294   3.298   3.304   3.307
  3.310   3.316   3.323   3.329   3.333   3.338   3.343   3.346
  3.352   3.355   3.365   3.374   3.381   3.388   3.393   3.397
  3.400   3.404   3.406   3.417   3.419   3.426   3.430   3.436
  3.442   3.444   3.445   3.458   3.465   3.470   3.474   3.479
  3.485   3.489   3.494   3.496   3.501   3.511   3.515   3.520
  3.528   3.530   3.537   3.542   3.565   3.567   3.569   3.582
  3.596   3.603   3.607   3.616   3.621   3.622   3.634   3.641
  3.660   3.666   3.670   3.682   3.690   3.693   3.698   3.705
  3.713   3.718   3.724   3.736   3.737   3.743   3.753   3.758
  3.768   3.772   3.780   3.786   3.792   3.799   3.805   3.814
  3.822   3.827   3.837   3.843   3.850   3.856   3.874   3.879
  3.888   3.899   3.905   3.915   3.917   3.921   3.930   3.932
  3.934   3.938   3.942   3.947   3.955   3.961   3.975   3.979
  3.988   3.993   4.002   4.012   4.015   4.020   4.026   4.035
  4.050   4.058   4.062   4.069   4.077   4.089   4.095   4.098
  4.103   4.112   4.122   4.132   4.149   4.154   4.163   4.173
  4.176   4.186   4.192   4.199   4.203   4.209   4.214   4.224
  4.229   4.241   4.246   4.248   4.259   4.260   4.266   4.276
  4.288   4.292   4.300   4.310   4.319   4.322   4.330   4.333
  4.341   4.353   4.359   4.363   4.366   4.377   4.385   4.391
  4.404   4.415   4.429   4.433   4.437   4.439   4.442   4.448
  4.468   4.484   4.490   4.499   4.517   4.524   4.527   4.536
  4.550   4.552   4.560   4.566   4.585   4.591   4.605   4.609
  4.626   4.630   4.645   4.652   4.654   4.670   4.681   4.705
  4.708   4.716   4.723   4.735   4.760   4.772   4.775   4.790
  4.796   4.805   4.812   4.817   4.829   4.835   4.846   4.863
  4.873   4.879   4.886   4.895   4.901   4.915   4.918   4.935
  4.937   4.949   4.949   4.966   4.973   4.981   4.985   4.990
  4.994   5.004   5.006   5.012   5.027   5.038   5.046   5.051
  5.070   5.079   5.093   5.099   5.111   5.112   5.117   5.121
  5.132   5.140   5.148   5.157   5.168   5.177   5.182   5.190
  5.204   5.212   5.241   5.259   5.269   5.303   5.306   5.313
  5.326   5.342   5.351   5.374   5.379   5.400   5.419   5.427
  5.449   5.464   5.478   5.488   5.495   5.497   5.513   5.544
  5.555   5.563   5.577   5.591   5.598   5.608   5.610   5.649
  5.674   5.698   5.717   5.720   5.744   5.753   5.758   5.792
  5.797   5.827   5.838   5.859   5.874   5.887   5.908   5.917
  5.944   5.963   6.002   6.019   6.057   6.084   6.130   6.181
  6.200   6.239   6.251   6.268   6.306   6.354   6.382   6.404
  6.446   6.489   6.607   6.873   6.988   7.078   8.077   8.925
  9.770  10.046  10.645  11.138  11.319  11.573  12.006  12.097
 12.397  12.643  12.796  12.857  12.878  12.993  13.117  13.164
 13.327  13.419  13.448  14.032  14.229  14.659  15.063  15.089
 --------------------------------------------------------------
 
          Ground-State Mulliken Net Atomic Charges

     Atom                 Charge (a.u.)
  ----------------------------------------
      1 C                    -0.092177
      2 C                    -0.129340
      3 C                    -0.080484
      4 C                    -0.118062
      5 N                    -0.145315
      6 C                     0.082256
      7 C                     0.101051
      8 N                    -0.177662
      9 C                    -0.016998
     10 C                    -0.080680
     11 N                    -0.217041
     12 C                     0.052859
     13 C                     0.056906
     14 S                     0.405412
     15 N                    -0.304991
     16 C                    -0.069943
     17 S                     0.218998
     18 C                     0.045533
     19 C                    -0.105715
     20 N                    -0.170139
     21 C                     0.047893
     22 C                    -0.032819
     23 C                    -0.049836
     24 N                    -0.129486
     25 C                    -0.138797
     26 S                     0.125846
     27 C                    -0.050996
     28 C                    -0.148299
     29 C                    -0.183858
     30 H                     0.133124
     31 H                     0.120308
     32 H                     0.120059
     33 H                     0.138271
     34 H                     0.137298
     35 H                     0.128441
     36 H                     0.133710
     37 H                     0.132060
     38 H                     0.128593
     39 H                     0.134022
  ----------------------------------------
  Sum of atomic charges =     0.000000

 -----------------------------------------------------------------
                    Cartesian Multipole Moments
 -----------------------------------------------------------------
    Charge (ESU x 10^10)
                 0.0000
    Dipole Moment (Debye)
         X       0.1405      Y       1.1437      Z       1.0403
       Tot       1.5524
    Quadrupole Moments (Debye-Ang)
        XX    -154.5240     XY       6.2754     YY    -167.8848
        XZ      -1.3708     YZ       1.7507     ZZ    -182.6036
    Octopole Moments (Debye-Ang^2)
       XXX     140.4724    XXY      -7.4157    XYY     -21.5725
       YYY      46.4144    XXZ      10.9702    XYZ      -1.6196
       YYZ       5.6775    XZZ     -24.8301    YZZ     -12.1693
       ZZZ       4.9976
    Hexadecapole Moments (Debye-Ang^3)
      XXXX  -16326.9710   XXXY     764.0211   XXYY   -3614.5585
      XYYY    -242.7358   YYYY   -3255.2292   XXXZ    -118.6717
      XXYZ     104.8934   XYYZ      34.2229   YYYZ      15.8586
      XXZZ   -3337.0126   XYZZ       1.1079   YYZZ    -713.9678
      XZZZ      -5.1769   YZZZ      -5.5735   ZZZZ    -504.7215
 -----------------------------------------------------------------
 Calculating analytic gradient of the SCF energy
 K construction time:  CPU 2892.57 s  wall 183.22 s
 Gradient of SCF Energy
            1           2           3           4           5           6
    1   0.0000982  -0.0002361   0.0001103   0.0001755   0.0000314  -0.0003933
    2  -0.0002263   0.0000428   0.0001057   0.0001951  -0.0000168  -0.0001943
    3  -0.0001405   0.0000091   0.0000212  -0.0003837   0.0001471   0.0005893
            7           8           9          10          11          12
    1   0.0005499  -0.0002660   0.0000129   0.0006085   0.0001653  -0.0000637
    2  -0.0002272   0.0000326  -0.0001246   0.0004357   0.0000744  -0.0002240
    3  -0.0003652   0.0000971   0.0000033  -0.0001744  -0.0000639   0.0003009
           13          14          15          16          17          18
    1  -0.0007335   0.0000098  -0.0004956   0.0008587   0.0010360  -0.0003991
    2  -0.0004681   0.0001749   0.0003122  -0.0001470   0.0000147   0.0001937
    3  -0.0001239   0.0000033  -0.0002854  -0.0005457   0.0008488   0.0004778
           19          20          21          22          23          24
    1  -0.0020905  -0.0005959   0.0001267   0.0017421  -0.0007363   0.0005407
    2  -0.0017524  -0.0001908   0.0018696   0.0027762   0.0000520  -0.0013292
    3   0.0000617   0.0000005  -0.0002238  -0.0001898   0.0000424  -0.0001708
           25          26          27          28          29          30
    1  -0.0007421  -0.0004791   0.0007503   0.0003728  -0.0001959  -0.0000076
    2  -0.0021953  -0.0000876   0.0006918   0.0001653   0.0001755   0.0000332
    3   0.0006306  -0.0004140  -0.0000331  -0.0004411   0.0001982   0.0001561
           31          32          33          34          35          36
    1  -0.0000122  -0.0000427  -0.0000087   0.0001862   0.0001475   0.0000695
    2   0.0000279  -0.0000306   0.0000378  -0.0002388   0.0000062   0.0003593
    3  -0.0000206   0.0000418  -0.0000478   0.0000444  -0.0001306  -0.0002139
           37          38          39
    1  -0.0001315   0.0000445  -0.0000071
    2  -0.0002735  -0.0000776   0.0000276
    3   0.0000447   0.0001847   0.0000652
 Max gradient component =       2.776E-03
 RMS gradient           =       5.832E-04
 Gradient time:  CPU 3346.63 s  wall 214.23 s
 Geometry Optimization Parameters
   NAtoms,    NIC,     NZ,  NCons,   NDum,   NFix, NCnnct, MaxDiis
       39     293       0       3       0       0       0       0

 Cartesian Hessian Update
 Hessian Updated using BFGS Update


** CONSTRAINED OPTIMIZATION IN DELOCALIZED INTERNAL COORDINATES **
   Searching for a Minimum

   Optimization Cycle:   2

                       Coordinates (Angstroms)
     ATOM                X               Y               Z
      1  C         7.6913645855    0.3465569168   -0.2847028922
      2  C         7.0151381998    1.5151476928    0.0265311211
      3  C         6.9471230095   -0.7977333405   -0.5219958062
      4  C         5.6362206176    1.4906004681    0.0924945759
      5  N         5.6228994500   -0.8375638147   -0.4565981609
      6  C         4.9788326867    0.2858012808   -0.1496119627
      7  C         3.4965042310    0.2412071856   -0.0897628361
      8  N         2.8585601556    1.3680179717   -0.2466999043
      9  C         2.7453487702   -0.9561302077    0.1468633321
     10  C         1.5049621696    1.4382501263   -0.2141546845
     11  N         3.2052385381   -2.1851775146    0.3891659839
     12  C         1.3153950481   -0.8774966179    0.1727622091
     13  C         0.6559351265    0.3747875995   -0.0173153074
     14  S         1.9208436019   -3.1202789564    0.6003998170
     15  N         0.7306908151   -2.0501536536    0.4121414916
     16  C        -0.7937057785    0.5172064369    0.0219007070
     17  S        -1.8496121024   -0.8364701528   -0.0073133681
     18  C        -1.5621256061    1.6805924267    0.0947233492
     19  C        -3.2819301271    0.0825889091    0.0488481299
     20  N        -1.0864442367    2.9567026603    0.1517755281
     21  C        -2.9702460192    1.4293563894    0.1118480956
     22  C        -4.6003368815   -0.5362941297    0.0586301418
     23  C        -1.9828095841    3.8923104848    0.2147617614
     24  N        -3.8847652748    2.4344955716    0.1792281167
     25  C        -5.4542933657   -0.6694005572    1.1133213625
     26  S        -5.2894977226   -1.2263173483   -1.3707013702
     27  C        -3.3886358204    3.6314563233    0.2270095787
     28  C        -6.6633006150   -1.3234778124    0.7733533428
     29  C        -6.7119026715   -1.6828147038   -0.5362368290
     30  H         8.7701161842    0.3190115309   -0.3445317263
     31  H         7.5558507745    2.4328266491    0.2142601716
     32  H         7.4374439716   -1.7293729258   -0.7799702121
     33  H         5.0580264262    2.3724964054    0.3214056988
     34  H         1.0942800242    2.4262921799   -0.3481427640
     35  H        -1.6303545570    4.9171388665    0.2600773794
     36  H        -5.2152883394   -0.2974086828    2.0978491549
     37  H        -4.0840410511    4.4616150377    0.2817507599
     38  H        -7.4573607095   -1.5220227885    1.4767837456
     39  H        -7.5076458858   -2.1901424506   -1.0546726566
   Point Group: c1    Number of degrees of freedom:   111


   Energy is  -2291.146258029

              Constraints and their Current Values
                                        Value     Constraint
   Dihedral:        4   6   7   8       21.822       21.822
   Dihedral:       10  13  16  17      169.064      169.064
   Dihedral:       17  19  22  25      105.000      105.000
 Hessian Updated using BFGS Update

103 Hessian modes will be used to form the next step
  Hessian Eigenvalues:
     0.033662    0.045000    0.045000    0.045000    0.045000    0.045000
     0.045000    0.045000    0.045000    0.045001    0.045001    0.045001
     0.045001    0.045001    0.045001    0.045001    0.045001    0.045002
     0.045002    0.045002    0.045003    0.045003    0.045004    0.045006
     0.045008    0.045011    0.045025    0.045040    0.046401    0.156582
     0.159986    0.159995    0.159997    0.159999    0.159999    0.160000
     0.160000    0.160000    0.160084    0.218369    0.220130    0.222850
     0.224195    0.231823    0.234710    0.238788    0.244154    0.246721
     0.249686    0.249926    0.249941    0.249961    0.249973    0.249981
     0.249983    0.249989    0.249992    0.249993    0.281653    0.314957
     0.329142    0.334688    0.340563    0.342758    0.354098    0.354439
     0.355798    0.357192    0.359038    0.360612    0.360949    0.362019
     0.364130    0.364599    0.368802    0.373013    0.376350    0.390962
     0.391573    0.407041    0.409488    0.419392    0.432510    0.457464
     0.458313    0.464776    0.471352    0.473711    0.479583    0.484889
     0.485860    0.486831    0.506642    0.515234    0.525110    0.534556
     0.557801    0.572717    0.582428    0.589744    0.639494    0.655087
     0.663629

 Minimum Search - Taking Simple RFO Step
 Searching for Lamda that Minimizes Along All modes
 Value Taken    Lamda =  -0.00017905
 Step Taken.  Stepsize is  0.056442

                             Maximum     Tolerance    Cnvgd?
         Gradient           0.002907      0.000300      NO
         Displacement       0.032957      0.001200      NO
         Energy change     -0.000343      0.000001      NO


 New Cartesian Coordinates Obtained by Inverse Iteration

 Displacement from previous Coordinates is:  0.334694
 ----------------------------------------------------------------
             Standard Nuclear Orientation (Angstroms)
    I     Atom           X                Y                Z
 ----------------------------------------------------------------
    1      C       7.6856361977     0.3659003996    -0.3136506129
    2      C       7.0090805562     1.5276829047     0.0209968036
    3      C       6.9435797842    -0.7795764437    -0.5523030565
    4      C       5.6308072436     1.4958159057     0.1056598317
    5      N       5.6208549886    -0.8266445889    -0.4679063743
    6      C       4.9764255340     0.2903195172    -0.1397081162
    7      C       3.4942017176     0.2387025549    -0.0689722147
    8      N       2.8506178002     1.3636218939    -0.2132654024
    9      C       2.7511173985    -0.9638630210     0.1655745186
   10      C       1.4964277017     1.4251227960    -0.1797249548
   11      N       3.2194749370    -2.1913636872     0.3998999785
   12      C       1.3208081297    -0.8940253704     0.1959840946
   13      C       0.6544636501     0.3556525323     0.0092997741
   14      S       1.9424071500    -3.1360479052     0.6117660488
   15      N       0.7452963691    -2.0722474807     0.4328295312
   16      C      -0.7965937642     0.4971699004     0.0376115058
   17      S      -1.8598290665    -0.8502029186    -0.0015699667
   18      C      -1.5570730296     1.6652951508     0.0978948259
   19      C      -3.2837176104     0.0800310337     0.0371162225
   20      N      -1.0708474082     2.9376002878     0.1592505441
   21      C      -2.9668652629     1.4230517535     0.0996674328
   22      C      -4.6098346269    -0.5338623074     0.0484187108
   23      C      -1.9616244939     3.8789081488     0.2131330475
   24      N      -3.8764228932     2.4352479816     0.1585356731
   25      C      -5.4660921341    -0.6484109280     1.1007963555
   26      S      -5.2909801787    -1.2424788174    -1.3726576748
   27      C      -3.3704702321     3.6273645603     0.2110186741
   28      C      -6.6777581624    -1.3013902927     0.7648282109
   29      C      -6.7200115971    -1.6794374136    -0.5399970503
   30      H       8.7633413137     0.3437226914    -0.3922162724
   31      H       7.5483287345     2.4456125026     0.2101855105
   32      H       7.4351416136    -1.7053414373    -0.8289281455
   33      H       5.0512488682     2.3723039384     0.3510012702
   34      H       1.0784153154     2.4111400327    -0.3110420135
   35      H      -1.6042747828     4.9016083396     0.2645966268
   36      H      -5.2293629604    -0.2680708421     2.0834758647
   37      H      -4.0574164818     4.4651568186     0.2586235479
   38      H      -7.4772900812    -1.4868522600     1.4653104678
   39      H      -7.5147321996    -2.1910124746    -1.0560581432
 ----------------------------------------------------------------
 Molecular Point Group                 C1    NOp =  1
 Largest Abelian Subgroup              C1    NOp =  1
 Nuclear Repulsion Energy =  2923.8292906012 hartrees
 There are      110 alpha and      110 beta electrons
 Applying Cartesian multipole field
    Component          Value
    ---------          -----
     (2,0,0)        1.00000E-12
     (0,2,0)        2.00000E-11
     (0,0,2)       -3.00000E-11
 Nucleus-field energy     =     0.0000000594 hartrees
 Requested basis set is cc-pVTZ
 There are 356 shells and 1022 basis functions
 A cutoff of  1.0D-11 yielded  30900 shell pairs
 There are    243742 function pairs (    318219 Cartesian)
 Smallest overlap matrix eigenvalue = 2.84E-05
 Guess MOs from SCF MO coefficient file
 Reading MOs from coefficient file
 Reading MOs from coefficient file
 Long-range K will be added via erf
 Coulomb attenuation parameter = 0.2 bohr**(-1)
 A restricted hybrid HF-DFT SCF calculation will be
 performed using Pulay DIIS extrapolation
 Exchange:     0.2220 Hartree-Fock + 1.0000 wB97X-D + LR-HF
 Correlation:  1.0000 wB97X-D
 Using SG-2 standard quadrature grid
 Dispersion:   Grimme D
 SCF converges when DIIS error is below 1.0E-08
 Geometry optimization detected.  Setting ReadMinima to 0
 Setting SaveMinima to 0
 using 16 threads for integral computing 
 using 16 threads for integral computing 
 K construction time:  CPU 1114.14 s  wall 73.59 s
 -------------------------------------------------------
 OpenMP BLAS3 based DFT computing Module                
 Release: version 1.0, May 2013, Q-Chem Inc. Pittsburgh 
 -------------------------------------------------------
 ---------------------------------------
  Cycle       Energy         DIIS Error
 ---------------------------------------
    1   -2291.1428942759      1.96E-04
 K construction time:  CPU 1115.44 s  wall 73.69 s
    2   -2291.1461831412      2.07E-05
 K construction time:  CPU 810.84 s  wall 53.64 s
    3   -2291.1462718625      1.85E-05
 K construction time:  CPU 764.02 s  wall 50.50 s
    4   -2291.1463088651      8.65E-06
 K construction time:  CPU 716.56 s  wall 47.34 s
    5   -2291.1463198132      2.83E-06
 K construction time:  CPU 661.36 s  wall 43.73 s
    6   -2291.1463210850      1.21E-06
 K construction time:  CPU 601.46 s  wall 39.69 s
    7   -2291.1463213047      4.16E-07
 K construction time:  CPU 547.45 s  wall 36.00 s
    8   -2291.1463213394      2.06E-07
 K construction time:  CPU 502.30 s  wall 33.01 s
    9   -2291.1463213494      8.19E-08
 K construction time:  CPU 441.32 s  wall 29.07 s
   10   -2291.1463213512      3.65E-08
 K construction time:  CPU 399.39 s  wall 26.29 s
   11   -2291.1463213498      1.49E-08
 K construction time:  CPU 355.44 s  wall 23.28 s
   12   -2291.1463213517      5.88E-09 Convergence criterion met
 ---------------------------------------
 SCF time:  CPU 10823.36 s  wall 733.12 s
 SCF   energy in the final basis set = -2291.1463213517
 Total energy in the final basis set = -2291.1463213517
 
 --------------------------------------------------------------
 
                    Orbital Energies (a.u.)
 --------------------------------------------------------------
 
 Alpha MOs
 -- Occupied --
-89.147 -89.099 -89.078 -14.483 -14.480 -14.461 -14.460 -14.445
-14.434 -10.355 -10.353 -10.351 -10.344 -10.343 -10.342 -10.340
-10.339 -10.336 -10.336 -10.331 -10.331 -10.327 -10.324 -10.317
-10.310 -10.301 -10.298 -10.295 -10.294  -8.157  -8.113  -8.093
 -6.107  -6.101  -6.101  -6.062  -6.058  -6.057  -6.042  -6.039
 -6.036  -1.143  -1.100  -1.069  -1.049  -1.028  -1.013  -1.003
 -0.986  -0.925  -0.912  -0.896  -0.877  -0.867  -0.852  -0.838
 -0.811  -0.777  -0.771  -0.748  -0.738  -0.730  -0.716  -0.710
 -0.670  -0.657  -0.646  -0.629  -0.628  -0.620  -0.608  -0.604
 -0.586  -0.576  -0.568  -0.561  -0.558  -0.546  -0.543  -0.527
 -0.512  -0.507  -0.499  -0.498  -0.493  -0.491  -0.484  -0.481
 -0.475  -0.468  -0.462  -0.461  -0.449  -0.439  -0.428  -0.426
 -0.420  -0.411  -0.394  -0.376  -0.371  -0.360  -0.357  -0.343
 -0.338  -0.337  -0.334  -0.333  -0.319  -0.277
 -- Virtual --
 -0.053  -0.022   0.025   0.040   0.042   0.051   0.066   0.071
  0.083   0.097   0.106   0.114   0.123   0.125   0.129   0.132
  0.150   0.154   0.158   0.163   0.174   0.175   0.182   0.187
  0.191   0.204   0.208   0.216   0.222   0.231   0.238   0.247
  0.257   0.262   0.270   0.274   0.276   0.285   0.287   0.291
  0.297   0.304   0.307   0.310   0.318   0.322   0.323   0.327
  0.334   0.339   0.341   0.346   0.347   0.350   0.353   0.356
  0.361   0.367   0.371   0.375   0.380   0.382   0.386   0.388
  0.389   0.393   0.394   0.396   0.400   0.401   0.409   0.413
  0.416   0.418   0.421   0.428   0.431   0.432   0.435   0.437
  0.441   0.445   0.449   0.452   0.454   0.459   0.464   0.465
  0.468   0.469   0.474   0.478   0.483   0.487   0.490   0.495
  0.499   0.503   0.506   0.512   0.513   0.518   0.518   0.522
  0.524   0.531   0.532   0.534   0.538   0.542   0.546   0.549
  0.551   0.559   0.568   0.571   0.580   0.580   0.587   0.589
  0.596   0.604   0.607   0.611   0.616   0.627   0.630   0.637
  0.640   0.647   0.648   0.654   0.656   0.664   0.666   0.671
  0.674   0.679   0.684   0.691   0.697   0.705   0.711   0.717
  0.720   0.727   0.728   0.736   0.738   0.744   0.747   0.754
  0.763   0.766   0.766   0.774   0.776   0.778   0.782   0.791
  0.793   0.796   0.798   0.807   0.813   0.818   0.824   0.825
  0.826   0.830   0.836   0.839   0.846   0.850   0.854   0.855
  0.860   0.866   0.871   0.871   0.881   0.881   0.891   0.899
  0.902   0.907   0.915   0.917   0.922   0.930   0.931   0.938
  0.942   0.948   0.953   0.955   0.956   0.959   0.963   0.972
  0.974   0.980   0.988   0.990   0.999   1.006   1.008   1.018
  1.021   1.027   1.033   1.039   1.046   1.052   1.056   1.059
  1.064   1.072   1.079   1.084   1.087   1.094   1.095   1.096
  1.103   1.105   1.111   1.118   1.123   1.129   1.135   1.139
  1.152   1.157   1.161   1.165   1.176   1.185   1.188   1.197
  1.200   1.204   1.215   1.216   1.233   1.237   1.244   1.252
  1.262   1.266   1.272   1.276   1.281   1.287   1.296   1.300
  1.302   1.310   1.319   1.328   1.335   1.340   1.349   1.355
  1.360   1.363   1.371   1.373   1.379   1.382   1.384   1.389
  1.396   1.400   1.409   1.418   1.424   1.427   1.436   1.443
  1.444   1.451   1.453   1.461   1.475   1.476   1.480   1.482
  1.489   1.496   1.501   1.508   1.511   1.517   1.523   1.531
  1.544   1.549   1.565   1.569   1.574   1.583   1.586   1.596
  1.611   1.613   1.614   1.622   1.634   1.636   1.644   1.645
  1.650   1.661   1.668   1.671   1.683   1.692   1.696   1.701
  1.705   1.716   1.721   1.723   1.727   1.739   1.750   1.752
  1.762   1.768   1.776   1.779   1.789   1.797   1.803   1.806
  1.817   1.823   1.841   1.849   1.867   1.876   1.887   1.891
  1.896   1.903   1.915   1.919   1.935   1.937   1.940   1.943
  1.957   1.969   1.977   1.982   1.987   1.990   2.000   2.011
  2.014   2.022   2.035   2.038   2.045   2.053   2.057   2.070
  2.077   2.091   2.101   2.106   2.108   2.112   2.123   2.130
  2.136   2.147   2.158   2.174   2.177   2.183   2.193   2.198
  2.205   2.213   2.217   2.227   2.231   2.244   2.252   2.258
  2.270   2.277   2.282   2.292   2.295   2.298   2.314   2.317
  2.324   2.329   2.336   2.343   2.349   2.361   2.366   2.372
  2.378   2.385   2.387   2.399   2.406   2.407   2.420   2.424
  2.435   2.445   2.452   2.459   2.460   2.469   2.472   2.478
  2.493   2.500   2.502   2.514   2.517   2.522   2.531   2.535
  2.539   2.543   2.545   2.547   2.553   2.564   2.575   2.589
  2.604   2.611   2.629   2.631   2.639   2.642   2.655   2.661
  2.667   2.672   2.679   2.687   2.694   2.699   2.712   2.723
  2.730   2.733   2.745   2.751   2.756   2.766   2.777   2.778
  2.786   2.788   2.796   2.801   2.809   2.816   2.820   2.828
  2.832   2.845   2.846   2.855   2.870   2.877   2.879   2.883
  2.889   2.893   2.903   2.914   2.918   2.919   2.928   2.933
  2.937   2.945   2.949   2.952   2.957   2.966   2.977   2.980
  2.981   2.990   3.001   3.004   3.011   3.014   3.016   3.022
  3.028   3.031   3.035   3.041   3.044   3.055   3.058   3.062
  3.064   3.069   3.070   3.077   3.081   3.084   3.085   3.089
  3.093   3.098   3.101   3.108   3.114   3.121   3.124   3.135
  3.142   3.146   3.149   3.157   3.158   3.163   3.167   3.171
  3.172   3.181   3.188   3.190   3.197   3.200   3.205   3.210
  3.213   3.214   3.220   3.227   3.230   3.232   3.236   3.237
  3.242   3.250   3.252   3.260   3.261   3.267   3.268   3.277
  3.278   3.286   3.289   3.290   3.295   3.297   3.304   3.307
  3.310   3.316   3.323   3.329   3.333   3.338   3.343   3.347
  3.352   3.355   3.366   3.375   3.380   3.388   3.393   3.398
  3.400   3.404   3.406   3.418   3.420   3.425   3.430   3.435
  3.442   3.444   3.445   3.458   3.466   3.470   3.475   3.479
  3.485   3.490   3.494   3.496   3.502   3.510   3.516   3.520
  3.527   3.529   3.537   3.542   3.565   3.568   3.570   3.582
  3.595   3.602   3.607   3.615   3.621   3.622   3.636   3.641
  3.660   3.666   3.671   3.682   3.690   3.693   3.698   3.704
  3.712   3.717   3.724   3.736   3.737   3.742   3.753   3.758
  3.768   3.772   3.780   3.786   3.792   3.798   3.805   3.815
  3.822   3.827   3.837   3.842   3.851   3.857   3.874   3.880
  3.889   3.899   3.905   3.915   3.917   3.922   3.930   3.933
  3.934   3.938   3.942   3.947   3.955   3.961   3.973   3.979
  3.988   3.994   4.003   4.012   4.015   4.021   4.028   4.035
  4.050   4.058   4.063   4.070   4.078   4.088   4.094   4.099
  4.102   4.112   4.122   4.131   4.148   4.155   4.162   4.174
  4.176   4.185   4.192   4.200   4.203   4.209   4.215   4.224
  4.228   4.240   4.245   4.248   4.258   4.261   4.266   4.276
  4.288   4.293   4.299   4.309   4.320   4.323   4.330   4.333
  4.342   4.354   4.359   4.363   4.367   4.377   4.386   4.392
  4.404   4.414   4.429   4.433   4.436   4.439   4.443   4.447
  4.467   4.484   4.491   4.498   4.516   4.524   4.527   4.536
  4.550   4.552   4.560   4.566   4.583   4.591   4.604   4.610
  4.626   4.631   4.644   4.652   4.654   4.670   4.681   4.704
  4.707   4.716   4.723   4.735   4.761   4.772   4.776   4.790
  4.797   4.805   4.811   4.817   4.828   4.833   4.845   4.863
  4.873   4.879   4.885   4.895   4.901   4.914   4.918   4.935
  4.937   4.948   4.949   4.966   4.973   4.981   4.985   4.990
  4.994   5.004   5.006   5.012   5.027   5.039   5.046   5.053
  5.070   5.080   5.093   5.100   5.111   5.113   5.117   5.121
  5.133   5.139   5.149   5.157   5.167   5.178   5.181   5.188
  5.203   5.212   5.240   5.259   5.268   5.302   5.305   5.313
  5.326   5.342   5.351   5.374   5.379   5.401   5.419   5.427
  5.452   5.465   5.478   5.488   5.494   5.497   5.513   5.542
  5.553   5.562   5.577   5.590   5.598   5.608   5.611   5.649
  5.675   5.700   5.719   5.720   5.743   5.754   5.758   5.792
  5.797   5.827   5.838   5.860   5.874   5.886   5.908   5.917
  5.946   5.962   6.004   6.019   6.057   6.084   6.131   6.180
  6.200   6.238   6.249   6.266   6.306   6.354   6.383   6.404
  6.446   6.490   6.607   6.874   6.984   7.078   8.077   8.931
  9.759  10.038  10.634  11.135  11.319  11.556  11.999  12.087
 12.394  12.642  12.798  12.855  12.882  12.984  13.125  13.174
 13.328  13.419  13.467  14.037  14.235  14.664  15.062  15.090
 --------------------------------------------------------------
 
          Ground-State Mulliken Net Atomic Charges

     Atom                 Charge (a.u.)
  ----------------------------------------
      1 C                    -0.092177
      2 C                    -0.129369
      3 C                    -0.080601
      4 C                    -0.118226
      5 N                    -0.145305
      6 C                     0.082528
      7 C                     0.100511
      8 N                    -0.177842
      9 C                    -0.016855
     10 C                    -0.080451
     11 N                    -0.217394
     12 C                     0.052070
     13 C                     0.056701
     14 S                     0.406153
     15 N                    -0.305284
     16 C                    -0.069216
     17 S                     0.218584
     18 C                     0.045313
     19 C                    -0.108180
     20 N                    -0.169697
     21 C                     0.049224
     22 C                    -0.032078
     23 C                    -0.050242
     24 N                    -0.129812
     25 C                    -0.138718
     26 S                     0.126676
     27 C                    -0.050139
     28 C                    -0.148363
     29 C                    -0.184552
     30 H                     0.133074
     31 H                     0.120360
     32 H                     0.119926
     33 H                     0.138092
     34 H                     0.138434
     35 H                     0.128478
     36 H                     0.133729
     37 H                     0.131942
     38 H                     0.128773
     39 H                     0.133933
  ----------------------------------------
  Sum of atomic charges =     0.000000

 -----------------------------------------------------------------
                    Cartesian Multipole Moments
 -----------------------------------------------------------------
    Charge (ESU x 10^10)
                 0.0000
    Dipole Moment (Debye)
         X       0.1154      Y       1.1838      Z       1.0158
       Tot       1.5641
    Quadrupole Moments (Debye-Ang)
        XX    -154.6116     XY       6.3163     YY    -167.7908
        XZ      -1.6332     YZ       1.8381     ZZ    -182.5889
    Octopole Moments (Debye-Ang^2)
       XXX     137.8742    XXY      -6.1204    XYY     -21.0577
       YYY      48.8851    XXZ       8.9361    XYZ      -1.9577
       YYZ       4.9812    XZZ     -24.4243    YZZ     -11.2858
       ZZZ       3.4369
    Hexadecapole Moments (Debye-Ang^3)
      XXXX  -16340.6199   XXXY     765.5457   XXYY   -3619.9080
      XYYY    -247.5525   YYYY   -3253.9587   XXXZ    -148.6277
      XXYZ     109.0071   XYYZ      33.8108   YYYZ      16.3151
      XXZZ   -3336.0523   XYZZ      -2.2530   YYZZ    -714.2112
      XZZZ     -10.9533   YZZZ      -4.3804   ZZZZ    -507.0889
 -----------------------------------------------------------------
 Calculating analytic gradient of the SCF energy
 K construction time:  CPU 2891.50 s  wall 183.15 s
 Gradient of SCF Energy
            1           2           3           4           5           6
    1  -0.0000429   0.0002796  -0.0000872  -0.0003342  -0.0000652   0.0002328
    2  -0.0001229   0.0001921   0.0001074   0.0002732   0.0001377  -0.0002785
    3  -0.0001025   0.0001345  -0.0000041  -0.0005627   0.0001454   0.0010414
            7           8           9          10          11          12
    1  -0.0001383  -0.0001853   0.0001146  -0.0001527  -0.0001439   0.0002363
    2  -0.0002376   0.0000963   0.0001350  -0.0002623  -0.0001069   0.0002069
    3  -0.0010810   0.0004627   0.0002647   0.0002652  -0.0001283   0.0001971
           13          14          15          16          17          18
    1   0.0000911   0.0000739   0.0004822  -0.0005504  -0.0004908  -0.0002950
    2   0.0002020  -0.0003402  -0.0002294   0.0000519   0.0001351   0.0002723
    3  -0.0000988   0.0000320  -0.0000555  -0.0002972   0.0006884   0.0003307
           19          20          21          22          23          24
    1   0.0022672   0.0007125   0.0000157  -0.0027462  -0.0002493  -0.0001578
    2   0.0010551  -0.0006928  -0.0000873   0.0010414   0.0003861  -0.0007474
    3  -0.0003442  -0.0002056  -0.0005695   0.0004977  -0.0000421   0.0000336
           25          26          27          28          29          30
    1   0.0009648  -0.0000659   0.0002970  -0.0001642   0.0003246  -0.0000030
    2  -0.0019079  -0.0000472  -0.0000002   0.0001938   0.0004516  -0.0000577
    3  -0.0012392   0.0003384  -0.0000879   0.0002364  -0.0000195   0.0000425
           31          32          33          34          35          36
    1  -0.0000692   0.0000692  -0.0000212  -0.0003589   0.0000248   0.0000849
    2  -0.0001315  -0.0000687  -0.0000203   0.0003739  -0.0000447   0.0002480
    3  -0.0000704   0.0000217  -0.0000627  -0.0001716   0.0000063   0.0003898
           37          38          39
    1   0.0000605   0.0000075  -0.0000176
    2  -0.0000615  -0.0000946  -0.0000202
    3   0.0000512  -0.0000295  -0.0000075
 Max gradient component =       2.746E-03
 RMS gradient           =       5.107E-04
 Gradient time:  CPU 3348.92 s  wall 214.18 s
 Geometry Optimization Parameters
   NAtoms,    NIC,     NZ,  NCons,   NDum,   NFix, NCnnct, MaxDiis
       39     293       0       3       0       0       0       0

 Cartesian Hessian Update
 Hessian Updated using BFGS Update


** CONSTRAINED OPTIMIZATION IN DELOCALIZED INTERNAL COORDINATES **
   Searching for a Minimum

   Optimization Cycle:   3

                       Coordinates (Angstroms)
     ATOM                X               Y               Z
      1  C         7.6856361977    0.3659003996   -0.3136506129
      2  C         7.0090805562    1.5276829047    0.0209968036
      3  C         6.9435797842   -0.7795764437   -0.5523030565
      4  C         5.6308072436    1.4958159057    0.1056598317
      5  N         5.6208549886   -0.8266445889   -0.4679063743
      6  C         4.9764255340    0.2903195172   -0.1397081162
      7  C         3.4942017176    0.2387025549   -0.0689722147
      8  N         2.8506178002    1.3636218939   -0.2132654024
      9  C         2.7511173985   -0.9638630210    0.1655745186
     10  C         1.4964277017    1.4251227960   -0.1797249548
     11  N         3.2194749370   -2.1913636872    0.3998999785
     12  C         1.3208081297   -0.8940253704    0.1959840946
     13  C         0.6544636501    0.3556525323    0.0092997741
     14  S         1.9424071500   -3.1360479052    0.6117660488
     15  N         0.7452963691   -2.0722474807    0.4328295312
     16  C        -0.7965937642    0.4971699004    0.0376115058
     17  S        -1.8598290665   -0.8502029186   -0.0015699667
     18  C        -1.5570730296    1.6652951508    0.0978948259
     19  C        -3.2837176104    0.0800310337    0.0371162225
     20  N        -1.0708474082    2.9376002878    0.1592505441
     21  C        -2.9668652629    1.4230517535    0.0996674328
     22  C        -4.6098346269   -0.5338623074    0.0484187108
     23  C        -1.9616244939    3.8789081488    0.2131330475
     24  N        -3.8764228932    2.4352479816    0.1585356731
     25  C        -5.4660921341   -0.6484109280    1.1007963555
     26  S        -5.2909801787   -1.2424788174   -1.3726576748
     27  C        -3.3704702321    3.6273645603    0.2110186741
[...]
   Point Group: c1    Number of degrees of freedom:   111


   Energy is  -2291.146404176

              Constraints and their Current Values
                                        Value     Constraint
   Dihedral:        4   6   7   8       21.822       21.822
   Dihedral:       10  13  16  17      169.064      169.064
   Dihedral:       17  19  22  25      105.000      105.000
 Hessian Updated using BFGS Update

107 Hessian modes will be used to form the next step
  Hessian Eigenvalues:
     0.007659    0.012902    0.039578    0.045000    0.045000    0.045000
     0.045000    0.045000    0.045000    0.045000    0.045000    0.045001
     0.045001    0.045001    0.045001    0.045001    0.045001    0.045002
     0.045002    0.045002    0.045003    0.045003    0.045006    0.045007
     0.045008    0.045021    0.045029    0.045119    0.045151    0.045235
     0.045592    0.046558    0.154024    0.159653    0.159950    0.159999
     0.160001    0.160003    0.160015    0.160090    0.160220    0.160300
     0.219804    0.222303    0.224241    0.224509    0.231716    0.233995
     0.244112    0.245125    0.246737    0.247893    0.249751    0.249892
     0.249954    0.249969    0.249982    0.250004    0.250304    0.252651
     0.265449    0.292125    0.313261    0.326681    0.333981    0.336304
     0.342661    0.354155    0.354437    0.355786    0.357142    0.359035
     0.360640    0.360984    0.361539    0.364100    0.364563    0.367274
     0.373951    0.379936    0.384807    0.402649    0.408096    0.413513
     0.424404    0.432781    0.442152    0.455695    0.461391    0.473589
     0.476071    0.481163    0.482574    0.485901    0.486531    0.504686
     0.512139    0.524493    0.527861    0.558403    0.572543    0.589725
     0.598305    0.640469    0.650267    0.670451    0.698633

 Minimum Search - Taking Simple RFO Step
 Searching for Lamda that Minimizes Along All modes
 Value Taken    Lamda =   0.00000000
 Step Taken.  Stepsize is  0.003309

                             Maximum     Tolerance    Cnvgd?
         Gradient           0.000066      0.000300     YES
         Displacement       0.001303      0.001200      NO
         Energy change      0.000000      0.000001     YES

 Final energy is   -2291.14640417601     


 ******************************
 **  OPTIMIZATION CONVERGED  **
 ******************************

                       Coordinates (Angstroms)
     ATOM                X               Y               Z
      1  C         7.6822940851    0.3412205447   -0.3481472095
      2  C         7.0211985715    1.5015690019    0.0200447126
      3  C         6.9262342306   -0.7923691464   -0.6000471221
      4  C         5.6442655249    1.4803701552    0.1240534538
      5  N         5.6044257169   -0.8293415479   -0.4972580417
      6  C         4.9750652626    0.2862016747   -0.1353857963
      7  C         3.4934743985    0.2461340839   -0.0501044957
      8  N         2.8566261309    1.3778618177   -0.1674832709
      9  C         2.7443168298   -0.9544991050    0.1751150771
     10  C         1.5025955549    1.4464228439   -0.1274471014
     11  N         3.2072932571   -2.1856208169    0.4003444155
     12  C         1.3150568481   -0.8764891413    0.2161907652
     13  C         0.6548522063    0.3784407406    0.0461319939
     14  S         1.9258225661   -3.1236796474    0.6162379774
     15  N         0.7337005333   -2.0520536116    0.4510008647
     16  C        -0.7961993924    0.5188630900    0.0669283240
     17  S        -1.8535524154   -0.8334795267    0.0084631512
     18  C        -1.5632276365    1.6834654787    0.1112837833
     19  C        -3.2832563989    0.0903347217    0.0116313746
     20  N        -1.0847194145    2.9586501796    0.1820989391
     21  C        -2.9722898599    1.4353180349    0.0851401728
     22  C        -4.6036121027   -0.5292351512    0.0268397884
     23  C        -1.9798995028    3.8960115586    0.2191592008
     24  N        -3.8864856698    2.4448478514    0.1269176790
     25  C        -5.4682070162   -0.6215325198    1.0763422357
     26  S        -5.2556495670   -1.3085365120   -1.3714080642
     27  C        -3.3875115721    3.6390822321    0.1900950297
     28  C        -6.6619315733   -1.3133089822    0.7539068151
     29  C        -6.6832515944   -1.7443781210   -0.5349749408
     30  H         8.7584340800    0.3116862289   -0.4437913824
     31  H         7.5717359329    2.4104072321    0.2215193392
     32  H         7.4042799127   -1.7160193513   -0.9053761407
     33  H         5.0774383226    2.3572245847    0.3965441752
     34  H         1.0904129841    2.4367339705   -0.2396421380
     35  H        -1.6279354487    4.9203399762    0.2769112672
     36  H        -5.2484746059   -0.2021077932    2.0462421774
     37  H        -4.0789335706    4.4740258185    0.2231701018
     38  H        -7.4650883870   -1.4866073639    1.4534636323
     39  H        -7.4628191835   -2.2897500273   -1.0392356695

Z-matrix Print:
$molecule
0 1
S 
C  1 1.702203
C  2 1.382420 1 109.827259
N  3 1.362589 2 124.857484 1 178.994578 0
C  4 1.295825 3 115.210966 2 179.770917 0
H  5 1.084569 4 117.742006 3 -179.878360 0
C  3 1.430985 2 113.028151 1 -1.144384 0
N  7 1.363848 3 120.568107 2 -179.971326 0
C  8 1.296675 7 115.796042 3 0.160738 0
H  9 1.084649 8 117.399672 7 -179.925281 0
C  7 1.395206 3 113.328882 2 0.430925 0
C  11 1.457979 7 128.902404 3 -178.493088 0
C  12 1.374549 11 122.736874 7 9.785548 0
H  13 1.078517 12 119.396996 11 -0.924119 0
N  13 1.356356 12 125.460306 11 179.391057 0
C  15 1.303902 13 121.924130 12 -0.552638 0
C  12 1.428159 11 122.888948 7 -169.631141 0
N  17 1.332315 12 126.483693 11 2.158050 0
C  17 1.431977 12 120.388011 11 -179.472643 0
N  19 1.334442 17 113.060528 12 -177.624900 0
C  2 1.458574 1 121.992401 3 176.160344 0
C  21 1.362901 2 127.666112 1 -104.999965 0
H  22 1.079308 21 122.447320 2 -1.269854 0
C  22 1.416862 21 113.097453 2 178.839092 0
H  24 1.079107 22 123.913887 21 179.990843 0
C  24 1.359225 22 112.572484 21 -0.391335 0
H  26 1.076771 24 128.028834 22 179.869955 0
C  16 1.484584 15 117.312016 13 -178.827482 0
N  28 1.330971 16 117.703916 15 156.357087 0
C  29 1.326315 28 117.966729 16 -178.730519 0
H  30 1.083920 29 115.951631 28 179.469931 0
C  30 1.385679 29 123.537775 28 -0.165910 0
H  32 1.080786 30 120.320484 29 -179.723155 0
C  32 1.385287 30 118.240232 29 0.561339 0
H  34 1.081513 32 120.695285 30 179.717939 0
C  34 1.381018 32 118.879829 30 -0.178940 0
H  36 1.079082 34 122.024191 32 179.330758 0
S  20 1.602726 19 106.577210 17 -0.743419 0
S  26 1.711031 24 111.695713 22 0.226974 0
$end

 
 --------------------------------------------------------------
 
                    Orbital Energies (a.u.)
 --------------------------------------------------------------
 
 Alpha MOs
 -- Occupied --
-89.147 -89.099 -89.078 -14.483 -14.480 -14.461 -14.459 -14.445
-14.434 -10.355 -10.353 -10.351 -10.344 -10.343 -10.342 -10.340
-10.339 -10.337 -10.336 -10.331 -10.331 -10.327 -10.324 -10.318
-10.310 -10.301 -10.299 -10.295 -10.294  -8.157  -8.113  -8.093
 -6.107  -6.101  -6.101  -6.062  -6.058  -6.057  -6.042  -6.039
 -6.036  -1.144  -1.100  -1.069  -1.049  -1.028  -1.013  -1.003
 -0.986  -0.925  -0.912  -0.896  -0.878  -0.867  -0.852  -0.838
 -0.811  -0.777  -0.771  -0.749  -0.738  -0.730  -0.716  -0.710
 -0.670  -0.657  -0.646  -0.629  -0.628  -0.620  -0.608  -0.604
 -0.586  -0.576  -0.568  -0.561  -0.558  -0.546  -0.543  -0.527
 -0.512  -0.507  -0.499  -0.498  -0.493  -0.491  -0.484  -0.481
 -0.475  -0.468  -0.463  -0.461  -0.449  -0.439  -0.428  -0.426
 -0.420  -0.411  -0.394  -0.376  -0.371  -0.360  -0.357  -0.343
 -0.339  -0.337  -0.334  -0.333  -0.319  -0.277
 -- Virtual --
 -0.053  -0.021   0.025   0.039   0.042   0.051   0.066   0.072
  0.083   0.096   0.106   0.114   0.123   0.125   0.129   0.132
  0.150   0.154   0.158   0.163   0.174   0.175   0.181   0.187
  0.192   0.204   0.208   0.216   0.222   0.232   0.239   0.247
  0.257   0.262   0.269   0.274   0.276   0.285   0.287   0.291
  0.297   0.304   0.307   0.310   0.318   0.322   0.323   0.327
  0.334   0.339   0.341   0.346   0.347   0.351   0.353   0.356
  0.361   0.367   0.371   0.376   0.380   0.382   0.386   0.388
  0.390   0.393   0.395   0.395   0.400   0.401   0.410   0.412
  0.417   0.418   0.421   0.427   0.430   0.432   0.435   0.436
  0.441   0.445   0.449   0.452   0.454   0.460   0.464   0.465
  0.468   0.469   0.474   0.477   0.483   0.487   0.489   0.495
  0.498   0.503   0.506   0.512   0.513   0.517   0.518   0.522
  0.524   0.531   0.531   0.534   0.538   0.542   0.546   0.549
  0.550   0.559   0.569   0.571   0.580   0.581   0.588   0.589
  0.596   0.605   0.607   0.611   0.616   0.627   0.630   0.637
  0.640   0.647   0.648   0.655   0.658   0.665   0.667   0.671
  0.674   0.678   0.684   0.691   0.698   0.706   0.711   0.718
  0.720   0.727   0.728   0.735   0.739   0.744   0.748   0.753
  0.763   0.766   0.767   0.774   0.776   0.779   0.782   0.789
  0.794   0.795   0.799   0.807   0.813   0.817   0.823   0.825
  0.827   0.829   0.836   0.839   0.846   0.851   0.853   0.855
  0.861   0.866   0.869   0.873   0.881   0.882   0.891   0.898
  0.902   0.906   0.915   0.918   0.922   0.930   0.931   0.938
  0.942   0.948   0.953   0.954   0.957   0.959   0.964   0.972
  0.976   0.980   0.988   0.991   0.998   1.007   1.007   1.019
  1.022   1.028   1.033   1.039   1.044   1.052   1.057   1.061
  1.064   1.073   1.079   1.085   1.088   1.093   1.095   1.096
  1.101   1.105   1.109   1.118   1.126   1.130   1.134   1.140
  1.152   1.158   1.161   1.164   1.176   1.184   1.189   1.197
  1.200   1.205   1.215   1.217   1.232   1.238   1.244   1.252
  1.262   1.266   1.274   1.276   1.284   1.288   1.295   1.300
  1.303   1.310   1.319   1.327   1.335   1.340   1.350   1.355
  1.360   1.362   1.372   1.373   1.379   1.382   1.384   1.389
  1.396   1.399   1.409   1.418   1.424   1.427   1.435   1.443
  1.443   1.451   1.454   1.460   1.472   1.475   1.480   1.481
  1.489   1.497   1.501   1.508   1.510   1.518   1.523   1.530
  1.544   1.550   1.565   1.569   1.574   1.583   1.586   1.596
  1.611   1.613   1.615   1.623   1.631   1.637   1.644   1.645
  1.650   1.660   1.667   1.672   1.683   1.692   1.697   1.700
  1.704   1.715   1.721   1.723   1.728   1.737   1.750   1.751
  1.763   1.768   1.776   1.778   1.791   1.799   1.801   1.807
  1.819   1.824   1.842   1.849   1.868   1.875   1.887   1.891
  1.896   1.902   1.915   1.920   1.935   1.937   1.942   1.945
  1.957   1.969   1.977   1.981   1.986   1.989   2.000   2.010
  2.015   2.022   2.035   2.039   2.045   2.052   2.056   2.071
  2.076   2.091   2.099   2.105   2.108   2.112   2.123   2.130
  2.136   2.148   2.158   2.174   2.176   2.182   2.194   2.198
  2.205   2.212   2.217   2.228   2.230   2.246   2.252   2.259
  2.270   2.276   2.280   2.291   2.296   2.297   2.314   2.316
  2.324   2.329   2.338   2.343   2.349   2.361   2.365   2.371
  2.377   2.386   2.386   2.398   2.405   2.407   2.420   2.424
  2.435   2.445   2.452   2.459   2.460   2.468   2.474   2.478
  2.494   2.500   2.503   2.514   2.516   2.521   2.530   2.535
  2.539   2.543   2.544   2.548   2.553   2.564   2.573   2.589
  2.602   2.610   2.628   2.631   2.639   2.642   2.656   2.661
  2.667   2.672   2.678   2.685   2.694   2.698   2.713   2.723
  2.730   2.733   2.745   2.750   2.756   2.766   2.776   2.778
  2.786   2.788   2.798   2.799   2.810   2.816   2.820   2.828
  2.832   2.845   2.846   2.855   2.870   2.878   2.879   2.882
  2.890   2.893   2.903   2.912   2.917   2.919   2.928   2.932
  2.938   2.944   2.948   2.953   2.957   2.966   2.976   2.979
  2.981   2.990   3.000   3.005   3.011   3.014   3.017   3.021
  3.029   3.030   3.035   3.041   3.044   3.055   3.057   3.062
  3.064   3.069   3.070   3.076   3.082   3.085   3.086   3.089
  3.094   3.099   3.100   3.108   3.115   3.121   3.124   3.135
  3.142   3.146   3.147   3.156   3.158   3.163   3.167   3.171
  3.172   3.180   3.188   3.191   3.196   3.200   3.205   3.210
  3.214   3.214   3.219   3.226   3.230   3.232   3.236   3.237
  3.242   3.249   3.252   3.259   3.261   3.268   3.269   3.276
  3.279   3.286   3.289   3.291   3.295   3.297   3.306   3.308
  3.309   3.316   3.322   3.329   3.333   3.339   3.343   3.347
  3.351   3.355   3.366   3.375   3.379   3.387   3.392   3.398
  3.400   3.404   3.405   3.418   3.421   3.424   3.430   3.435
  3.442   3.443   3.446   3.456   3.466   3.470   3.475   3.478
  3.485   3.490   3.494   3.497   3.502   3.510   3.517   3.519
  3.527   3.530   3.537   3.542   3.565   3.569   3.570   3.582
  3.595   3.603   3.606   3.615   3.621   3.623   3.636   3.642
  3.660   3.666   3.673   3.682   3.690   3.694   3.700   3.703
  3.712   3.716   3.724   3.737   3.737   3.743   3.753   3.757
  3.767   3.772   3.780   3.786   3.792   3.797   3.805   3.813
  3.823   3.827   3.837   3.843   3.852   3.857   3.872   3.882
  3.888   3.897   3.905   3.916   3.917   3.922   3.930   3.932
  3.934   3.938   3.942   3.946   3.955   3.961   3.972   3.979
  3.987   3.993   4.002   4.011   4.016   4.020   4.027   4.035
  4.051   4.058   4.063   4.069   4.077   4.088   4.094   4.098
  4.102   4.112   4.123   4.132   4.149   4.155   4.163   4.173
  4.176   4.185   4.192   4.200   4.202   4.208   4.217   4.222
  4.227   4.240   4.245   4.249   4.258   4.261   4.266   4.277
  4.287   4.291   4.300   4.310   4.320   4.323   4.330   4.332
  4.343   4.354   4.359   4.362   4.366   4.377   4.386   4.392
  4.405   4.413   4.429   4.433   4.436   4.439   4.443   4.447
  4.467   4.484   4.490   4.497   4.516   4.524   4.528   4.536
  4.551   4.553   4.561   4.567   4.582   4.591   4.603   4.611
  4.627   4.631   4.645   4.653   4.654   4.670   4.680   4.704
  4.706   4.715   4.722   4.735   4.761   4.773   4.776   4.789
  4.797   4.804   4.811   4.817   4.829   4.834   4.846   4.863
  4.872   4.878   4.883   4.894   4.900   4.915   4.918   4.935
  4.936   4.948   4.949   4.965   4.974   4.981   4.985   4.989
  4.993   5.005   5.006   5.012   5.026   5.039   5.046   5.052
  5.070   5.080   5.093   5.102   5.112   5.114   5.118   5.121
  5.134   5.139   5.148   5.156   5.167   5.177   5.180   5.189
  5.204   5.212   5.240   5.259   5.269   5.302   5.306   5.312
  5.326   5.342   5.351   5.374   5.378   5.401   5.419   5.427
  5.451   5.465   5.477   5.488   5.495   5.497   5.513   5.545
  5.553   5.561   5.577   5.591   5.599   5.606   5.611   5.648
  5.675   5.700   5.718   5.719   5.744   5.753   5.757   5.791
  5.796   5.827   5.838   5.860   5.873   5.886   5.909   5.918
  5.946   5.963   6.002   6.019   6.058   6.083   6.131   6.181
  6.200   6.238   6.249   6.266   6.306   6.355   6.382   6.404
  6.446   6.488   6.608   6.874   6.985   7.077   8.079   8.933
  9.759  10.043  10.636  11.137  11.315  11.559  12.002  12.094
 12.394  12.640  12.795  12.857  12.877  12.978  13.118  13.175
 13.326  13.417  13.457  14.036  14.244  14.662  15.063  15.093
 --------------------------------------------------------------
 
          Ground-State Mulliken Net Atomic Charges

     Atom                 Charge (a.u.)
  ----------------------------------------
      1 C                    -0.092215
      2 C                    -0.129179
      3 C                    -0.080413
      4 C                    -0.118247
      5 N                    -0.145808
      6 C                     0.082580
      7 C                     0.100800
      8 N                    -0.177575
      9 C                    -0.017643
     10 C                    -0.080860
     11 N                    -0.217489
     12 C                     0.053091
     13 C                     0.056654
     14 S                     0.405830
     15 N                    -0.305253
     16 C                    -0.067729
     17 S                     0.217584
     18 C                     0.044776
     19 C                    -0.108635
     20 N                    -0.169576
     21 C                     0.047603
     22 C                    -0.029372
     23 C                    -0.049984
     24 N                    -0.130117
     25 C                    -0.139167
     26 S                     0.126855
     27 C                    -0.050123
     28 C                    -0.147886
     29 C                    -0.185316
     30 H                     0.133105
     31 H                     0.120358
     32 H                     0.119868
     33 H                     0.137836
     34 H                     0.138283
     35 H                     0.128300
     36 H                     0.134347
     37 H                     0.131939
     38 H                     0.128657
     39 H                     0.134122
  ----------------------------------------
  Sum of atomic charges =     0.000000

 -----------------------------------------------------------------
                    Cartesian Multipole Moments
 -----------------------------------------------------------------
    Charge (ESU x 10^10)
                 0.0000
    Dipole Moment (Debye)
         X       0.1382      Y       1.1429      Z       1.0157
       Tot       1.5352
    Quadrupole Moments (Debye-Ang)
        XX    -154.4580     XY       6.2393     YY    -167.6880
        XZ      -1.9768     YZ       2.0092     ZZ    -182.6579
    Octopole Moments (Debye-Ang^2)
       XXX     141.3855    XXY      -7.2383    XYY     -23.9354
       YYY      47.8277    XXZ       8.9286    XYZ      -2.4359
       YYZ       3.9704    XZZ     -23.1252    YZZ     -11.1660
       ZZZ       2.1022
    Hexadecapole Moments (Debye-Ang^3)
      XXXX  -16306.0479   XXXY     759.0826   XXYY   -3603.0035
      XYYY    -251.0564   YYYY   -3276.3783   XXXZ    -179.4810
      XXYZ     115.9442   XYYZ      37.1004   YYYZ       9.3734
      XXZZ   -3326.7570   XYZZ      -5.0549   YYZZ    -718.0346
      XZZZ     -10.4999   YZZZ     -11.8672   ZZZZ    -508.9981
 -----------------------------------------------------------------
Archival summary:
1\1\mn214\OPT\ProcedureUnspecified\BasisUnspecified\362010\afmv_a\SatJun1709:16:212017SatJun1709:16:212017\0\\#,OPT,ProcedureUnspecified,BasisUnspecified,\\0,1\S\C,1,1.7022\C,2,1.38242,1,109.827\N,3,1.36259,2,124.857,1,178.995,0\C,4,1.29582,3,115.211,2,179.771,0\H,5,1.08457,4,117.742,3,-179.878,0\C,3,1.43098,2,113.028,1,-1.14438,0\N,7,1.36385,3,120.568,2,-179.971,0\C,8,1.29668,7,115.796,3,0.160738,0\H,9,1.08465,8,117.4,7,-179.925,0\C,7,1.39521,3,113.329,2,0.430925,0\C,11,1.45798,7,128.902,3,-178.493,0\C,12,1.37455,11,122.737,7,9.78555,0\H,13,1.07852,12,119.397,11,-0.924119,0\N,13,1.35636,12,125.46,11,179.391,0\C,15,1.3039,13,121.924,12,-0.552638,0\C,12,1.42816,11,122.889,7,-169.631,0\N,17,1.33231,12,126.484,11,2.15805,0\C,17,1.43198,12,120.388,11,-179.473,0\N,19,1.33444,17,113.061,12,-177.625,0\C,2,1.45857,1,121.992,3,176.16,0\C,21,1.3629,2,127.666,1,-105,0\H,22,1.07931,21,122.447,2,-1.26985,0\C,22,1.41686,21,113.097,2,178.839,0\H,24,1.07911,22,123.914,21,179.991,0\C,24,1.35922,22,112.572,21,-0.391335,0\H,26,1.07677,24,128.029,22,179.87,0\C,16,1.48458,15,117.312,13,-178.827,0\N,28,1.33097,16,117.704,15,156.357,0\C,29,1.32631,28,117.967,16,-178.731,0\H,30,1.08392,29,115.952,28,179.47,0\C,30,1.38568,29,123.538,28,-0.16591,0\H,32,1.08079,30,120.32,29,-179.723,0\C,32,1.38529,30,118.24,29,0.561339,0\H,34,1.08151,32,120.695,30,179.718,0\C,34,1.38102,32,118.88,30,-0.17894,0\H,36,1.07908,34,122.024,32,179.331,0\S,20,1.60273,19,106.577,17,-0.743419,0\S,26,1.71103,24,111.696,22,0.226974,0\\\@

 Total job time:  8031.65s(wall), 119959.24s(cpu) 
 Sat Jun 17 09:16:21 2017

        *************************************************************
        *                                                           *
        *  Thank you very much for using Q-Chem.  Have a nice day.  *
        *                                                           *
        *************************************************************


