
Running Job 1 of 1 C169_3/C169_75.qcin
qchem C169_3/C169_75.qcin_41571.0 /tmpu/cab_g/afmv_a/scratch_qchem/qchem41571/ 1
/tmpu/appuserlic/qchem4.4/serial-multicore/exe/qcprog.exe_s C169_3/C169_75.qcin_41571.0 /tmpu/cab_g/afmv_a/scratch_qchem/qchem41571/
Check license passed

                  Welcome to Q-Chem
     A Quantum Leap Into The Future Of Chemistry


 Q-Chem 4.4, Q-Chem, Inc., Pleasanton, CA (2016)

 Y. Shao,  Z. Gan,  E. Epifanovsky,  A. T. B. Gilbert,  M. Wormit,  
 J. Kussmann,  A. W. Lange,  A. Behn,  J. Deng,  X. Feng,  D. Ghosh,  
 M. Goldey,  P. R. Horn,  L. D. Jacobson,  I. Kaliman,  F. Rob,  
 R. Z. Khaliullin,  T. Kus,  A. Landau,  J. Liu,  E. I. Proynov,  Y. M. Rhee,  
 R. M. Richard,  M. A. Rohrdanz,  R. P. Steele,  E. J. Sundstrom,  
 H. L. Woodcock III,  P. M. Zimmerman,  D. Zuev,  B. Albrecht,  E. Alguire,  
 B. Austin,  S. A. Baeppler,  G. J. O. Beran,  Y. A. Bernard,  E. Berquist,  
 K. Brandhorst,  K. B. Bravaya,  S. T. Brown,  D. Casanova,  C.-M. Chang,  
 Y. Chen,  S. H. Chien,  K. D. Closser,  M. P. Coons,  D. L. Crittenden,  
 S. Dasgupta,  M. Diedenhofen,  R. A. DiStasio Jr.,  H. Do,  A. D. Dutoi,  
 R. G. Edgar,  P.-T. Fang,  S. Fatehi,  Q. Feng,  L. Fusti-Molnar,  
 A. Ghysels,  A. Golubeva-Zadorozhnaya,  J. Gomes,  A. Gunina,  
 M. W. D. Hanson-Heine,  P. H. P. Harbach,  A. W. Hauser,  J. E. Herr,  
 E. G. Hohenstein,  Z. C. Holden,  K. Hui,  T.-C. Jagau,  H. Ji,  B. Kaduk,  
 K. Khistyaev,  Jaehoon Kim,  Jihan Kim,  R. A. King,  P. Klunzinger,  
 K. Koh,  D. Kosenkov,  T. Kowalczyk,  C. M. Krauter,  A. Kunitsa,  
 K. U. Lao,  A. Laurent,  K. V. Lawler,  J. Lee,  D. Lefrancois,  S. Lehtola,  
 S. V. Levchenko,  C. Y. Lin,  Y.-S. Lin,  F. Liu,  E. Livshits,  
 R. C. Lochan,  A. Luenser,  P. Manohar,  S. F. Manzer,  S.-P. Mao,  Y. Mao,  
 N. Mardirossian,  A. V. Marenich,  L. A. Martinez-Martinez,  S. A. Maurer,  
 N. J. Mayhall,  J.-M. Mewes,  A. F. Morrison,  K. Nanda,  T. S. Nguyen-Beck,  
 C. M. Oana,  R. Olivares-Amaya,  D. P. O'Neill,  J. A. Parkhill,  
 T. M. Perrine,  R. Peverati,  P. A. Pieniazek,  F. Plasser,  A. Prociuk,  
 D. R. Rehn,  E. Rosta,  N. J. Russ,  N. Sergueev,  S. M. Sharada,  
 S. Sharma,  D. W. Small,  A. Sodt,  T. Stauch,  T. Stein,  D. Stuck,  
 Y.-C. Su,  A. J. W. Thom,  T. Tsuchimochi,  L. Vogt,  O. Vydrov,  T. Wang,  
 M. A. Watson,  J. Wenzel,  A. White,  C. F. Williams,  V. Vanovschi,  
 K. Yao,  S. Yeganeh,  S. R. Yost,  Z.-Q. You,  I. Y. Zhang,  X. Zhang,  
 Y. Zhao,  B. R. Brooks,  G. K. L. Chan,  D. M. Chipman,  C. J. Cramer,  
 W. A. Goddard III,  M. S. Gordon,  W. J. Hehre,  A. Klamt,  
 H. F. Schaefer III,  M. W. Schmidt,  C. D. Sherrill,  D. G. Truhlar,  
 A. Warshel,  X. Xu,  A. Aspuru-Guzik,  R. Baer,  A. T. Bell,  N. A. Besley,  
 J.-D. Chai,  A. Dreuw,  B. D. Dunietz,  T. R. Furlani,  S. R. Gwaltney,  
 C.-P. Hsu,  Y. Jung,  J. Kong,  D. S. Lambrecht,  W. Liang,  C. Ochsenfeld,  
 V. A. Rassolov,  L. V. Slipchenko,  J. E. Subotnik,  T. Van Voorhis,  
 J. M. Herbert,  A. I. Krylov,  P. M. W. Gill,  M. Head-Gordon

 Contributors to earlier versions of Q-Chem not listed above: 
 R. D. Adamson,  J. Baker,  E. F. C. Byrd,  A. K. Chakraborty,  C.-L. Cheng,  
 H. Dachsel,  R. J. Doerksen,  G. Hawkins,  A. Heyden,  S. Hirata,  
 G. Kedziora,  F. J. Keil,  C. Kelley,  P. P. Korambath,  W. Kurlancheek,  
 A. M. Lee,  M. S. Lee,  D. Liotard,  I. Lotan,  P. E. Maslen,  N. Nair,  
 D. Neuhauser,  R. Olson,  B. Peters,  J. Ritchie,  N. E. Schultz,  
 N. Shenvi,  A. C. Simmonett,  K. S. Thanthiriwatte,  Q. Wu,  W. Zhang

 Please cite Q-Chem as follows:
 Y. Shao et al., Mol. Phys. 113, 184-215 (2015)
 DOI: 10.1080/00268976.2014.952696

 Q-Chem 4.4.2 for Intel X86 Linux

 Parts of Q-Chem use Armadillo 5.200.1 (Boston Tea Smuggler).
 http://arma.sourceforge.net/

 Q-Chem begins on Sun Jun 18 00:16:58 2017  

Host: 
0

     Scratch files written to /tmpu/cab_g/afmv_a/scratch_qchem/qchem41571//
 Dec716 11556_ 22328  22283 4050   
Processing $rem in /tmpu/appuserlic/qchem4.4/serial-multicore/config/preferences.
 MEM_TOTAL  2000 
FILE_GEOM_ORG=        593

Checking the input file for inconsistencies... 	...done.

--------------------------------------------------------------
User input:
--------------------------------------------------------------
$comment
OPTIMIZATION
$end

$rem
JOBTYPE OPT
EXCHANGE omegaB97X-D
BASIS cc-pVTZ
$end

$molecule
0 1
C          0.00000        0.00000        0.00000
C         -0.65396       -1.22126       -0.00000
C          1.38563        0.00000        0.00000
C          0.09526       -2.37957        0.00866
N          2.11912       -1.10562        0.01199
C          1.48546       -2.27640        0.02149
C          2.30642       -3.51253        0.03449
N          1.74513       -4.60745       -0.39909
C          3.65824       -3.56714        0.50995
C          2.40434       -5.79109       -0.42442
N          4.38617       -2.58332        1.04242
C          4.35289       -4.81920        0.47143
C          3.70163       -5.99343       -0.01477
S          5.80914       -3.21778        1.41887
N          5.59255       -4.74484        0.95148
C          4.33823       -7.30129       -0.04468
S          6.02589       -7.51949        0.20234
C          3.75434       -8.55173       -0.24928
C          5.99762       -9.21427        0.01351
N          2.43078       -8.79033       -0.46746
C          4.69159       -9.63209       -0.21260
C          7.19111      -10.02404        0.10954
C          2.09912      -10.03238       -0.63993
N          4.30733      -10.92364       -0.39820
C          7.87817      -10.37648        1.23864
S          7.94553      -10.70474       -1.29631
C          3.03978      -11.10696       -0.60697
C          9.01256      -11.17896        0.96942
C          9.17793      -11.43193       -0.35594
H         -0.54853        0.93120        0.00000
H         -1.73532       -1.26909       -0.00410
H          1.93662        0.93286       -0.01167
H         -0.36319       -3.35650        0.00329
H          1.82722       -6.62671       -0.78554
H          1.05088      -10.24576       -0.82054
H          7.56189      -10.06918        2.22115
H          2.69937      -12.12548       -0.75876
H          9.67830      -11.54545        1.73592
H          9.95284      -12.01120       -0.82808
$end

$opt
CONSTRAINT
tors 4 6 7 8 21.82164
tors 10 13 16 17 169.06444
tors 17 19 22 25 75.00000
ENDCONSTRAINT
$end
--------------------------------------------------------------
 ----------------------------------------------------------------
             Standard Nuclear Orientation (Angstroms)
    I     Atom           X                Y                Z
 ----------------------------------------------------------------
    1      C       7.7000562131     0.4365684052    -0.2622758828
    2      C       6.9972627470     1.5826226186     0.0720604047
    3      C       6.9802495669    -0.7139630766    -0.5417865243
    4      C       5.6196114117     1.5302518422     0.1212717887
    5      N       5.6558743581    -0.7801508907    -0.4949207151
    6      C       4.9859881825     0.3216670466    -0.1638757047
    7      C       3.5048043495     0.2470343706    -0.1120479622
    8      N       2.8452364836     1.3657487442    -0.2358876469
    9      C       2.7740189735    -0.9712679251     0.0832825951
   10      C       1.4914287560     1.4094034130    -0.1971321393
   11      N       3.2559410367    -2.1990312206     0.2873820648
   12      C       1.3428936378    -0.9198478416     0.1134969140
   13      C       0.6603610638     0.3263258624    -0.0298436084
   14      S       1.9894495198    -3.1645109636     0.4688918955
   15      N       0.7806411249    -2.1098904305     0.3145070531
   16      C      -0.7879140939     0.4512764223     0.0296406141
   17      S      -1.8414921839    -0.9060988342    -0.0361774505
   18      C      -1.5597945566     1.6064060422     0.1571749162
   19      C      -3.2807114009     0.0030214099     0.0681472225
   20      N      -1.0842039239     2.8795736261     0.2530988410
   21      C      -2.9675174853     1.3521793743     0.1825849943
   22      C      -4.5883040310    -0.6129149976     0.0543106991
   23      C      -1.9787293049     3.8128268197     0.3593780880
   24      N      -3.8774723943     2.3569422378     0.2950045744
   25      C      -5.2031503832    -1.3010137400     1.0640712109
   26      S      -5.6147242678    -0.5400792946    -1.3421393383
   27      C      -3.3834310559     3.5538754622     0.3795513070
   28      C      -6.4877038474    -1.7771339777     0.7083660694
   29      C      -6.8399386752    -1.4471927871    -0.5624563510
   30      H       8.7799129414     0.4322087787    -0.3059684540
   31      H       7.5180219990     2.5051864943     0.2941632302
   32      H       7.4899013822    -1.6290935548    -0.8188157352
   33      H       5.0236193936     2.3947063988     0.3704891598
   34      H       1.0641868505     2.3945048376    -0.2908096212
   35      H      -1.6232048669     4.8352299394     0.4318510413
   36      H      -4.7391763434    -1.4439200269     2.0253714305
   37      H      -4.0818114122     4.3786746526     0.4705091879
   38      H      -7.1172528438    -2.3469333776     1.3747320520
   39      H      -7.7549233916    -1.6826315900    -1.0785251057
 ----------------------------------------------------------------
 Molecular Point Group                 C1    NOp =  1
 Largest Abelian Subgroup              C1    NOp =  1
 Nuclear Repulsion Energy =  2922.5853829462 hartrees
 There are      110 alpha and      110 beta electrons
 Requested basis set is cc-pVTZ
 There are 356 shells and 1022 basis functions

 Total QAlloc Memory Limit   2000 MB
 Mega-Array Size        61 MB
 MEM_STATIC part        62 MB
 A cutoff of  1.0D-11 yielded  30899 shell pairs
 There are    243557 function pairs (    317954 Cartesian)
 
 -------------------------------------------------------
 OpenMP Integral Computing Module                       
 Release: version 1.0, May 2013, Q-Chem Inc. Pittsburgh 
 -------------------------------------------------------
 Integral Job Info:
 Integral job number is                      11
 Integral operator is                         1
 short-range coefficients              22203600
 long-range coefficients              100000000
 Omega coefficients                         200
 if combine SR and LR in K                    1
 Integral screening is                        0
 Integral computing path is                   2
 max size of driver memory is            800000
 size of driver memory is                776718
 size of scratch memory is             26248924
 max col of scratch BK array              10000
 max len of scratch array in speh3          662
 max len of scratch index in speh4           32
 max int batch size is                      520
 min int batch size is                       52
 fixed nKL is                                52
 max L of basis functions is                  3
 order of int derivative is                   0
 number of shells is                        356
 number of basis is                        1177
 number of cartesian basis is              1177
 number of contracted shell pairs         30899
 number of primitive shell pairs          93622
 maxK2 (contraction) of shell pair          121
 max number of K2 of shell pair               1
 max number of CS2 of shell pair           4270
 max number of PS2 of shell pair          12950
 mem total for path MDJ                  837060
 -------------------------------------------------------
 Smallest overlap matrix eigenvalue = 2.90E-05

 Scale SEOQF with 1.000000e-02/1.000000e-01/1.000000e-01

 Standard Electronic Orientation quadrupole field applied
 Nucleus-field energy     =     0.0000000591 hartrees
 Guess from superposition of atomic densities
 Warning:  Energy on first SCF cycle will be non-variational
 Long-range K will be added via erf
 Coulomb attenuation parameter = 0.2 bohr**(-1)
 A restricted hybrid HF-DFT SCF calculation will be
 performed using Pulay DIIS extrapolation
 Exchange:     0.2220 Hartree-Fock + 1.0000 wB97X-D + LR-HF
 Correlation:  1.0000 wB97X-D
 Using SG-2 standard quadrature grid
 Dispersion:   Grimme D
 SCF converges when DIIS error is below 1.0E-08
 using 16 threads for integral computing 
 using 16 threads for integral computing 
 K construction time:  CPU 70.16 s  wall 4.69 s
 -------------------------------------------------------
 OpenMP BLAS3 based DFT computing Module                
 Release: version 1.0, May 2013, Q-Chem Inc. Pittsburgh 
 -------------------------------------------------------
 ---------------------------------------
  Cycle       Energy         DIIS Error
 ---------------------------------------
    1   -2301.4245417684      1.83E-02
 K construction time:  CPU 1117.43 s  wall 73.72 s
    2   -2290.9003475661      1.32E-03
 K construction time:  CPU 1061.72 s  wall 70.13 s
    3   -2290.9479802903      1.29E-03
 K construction time:  CPU 1012.59 s  wall 66.90 s
    4   -2291.1398003707      2.04E-04
 K construction time:  CPU 940.89 s  wall 62.13 s
    5   -2291.1437237307      1.32E-04
 K construction time:  CPU 894.67 s  wall 59.09 s
    6   -2291.1457517511      4.61E-05
 K construction time:  CPU 837.78 s  wall 55.32 s
    7   -2291.1460256779      1.69E-05
 K construction time:  CPU 780.38 s  wall 51.57 s
    8   -2291.1460737872      5.32E-06
 K construction time:  CPU 749.20 s  wall 49.60 s
    9   -2291.1460840734      3.72E-06
 K construction time:  CPU 708.77 s  wall 46.80 s
   10   -2291.1460876296      1.32E-06
 K construction time:  CPU 642.91 s  wall 42.47 s
   11   -2291.1460881816      7.12E-07
 K construction time:  CPU 606.01 s  wall 39.91 s
   12   -2291.1460883367      2.22E-07
 K construction time:  CPU 531.45 s  wall 34.97 s
   13   -2291.1460883531      1.15E-07
 K construction time:  CPU 476.92 s  wall 31.34 s
   14   -2291.1460883555      3.06E-08
 K construction time:  CPU 395.22 s  wall 25.90 s
   15   -2291.1460883561      1.64E-08
 K construction time:  CPU 1115.47 s  wall 73.79 s
   16   -2291.1460883536      4.80E-09 Convergence criterion met
 ---------------------------------------
 SCF time:  CPU 15900.25 s  wall 1077.52 s
 SCF   energy in the final basis set = -2291.1460883536
 Total energy in the final basis set = -2291.1460883536
 
 --------------------------------------------------------------
 
                    Orbital Energies (a.u.)
 --------------------------------------------------------------
 
 Alpha MOs
 -- Occupied --
-89.147 -89.100 -89.077 -14.483 -14.480 -14.461 -14.459 -14.445
-14.434 -10.355 -10.353 -10.351 -10.344 -10.343 -10.342 -10.340
-10.339 -10.337 -10.337 -10.332 -10.331 -10.327 -10.324 -10.318
-10.310 -10.301 -10.298 -10.296 -10.294  -8.157  -8.114  -8.092
 -6.107  -6.101  -6.101  -6.063  -6.059  -6.058  -6.042  -6.038
 -6.035  -1.144  -1.100  -1.069  -1.049  -1.028  -1.013  -1.002
 -0.985  -0.925  -0.912  -0.896  -0.878  -0.867  -0.853  -0.838
 -0.811  -0.777  -0.770  -0.748  -0.738  -0.730  -0.716  -0.711
 -0.670  -0.658  -0.645  -0.629  -0.628  -0.620  -0.608  -0.604
 -0.586  -0.576  -0.568  -0.561  -0.559  -0.546  -0.543  -0.527
 -0.512  -0.507  -0.500  -0.498  -0.493  -0.492  -0.484  -0.482
 -0.475  -0.468  -0.463  -0.461  -0.448  -0.438  -0.428  -0.425
 -0.420  -0.410  -0.394  -0.376  -0.371  -0.360  -0.358  -0.343
 -0.338  -0.337  -0.334  -0.332  -0.319  -0.277
 -- Virtual --
 -0.053  -0.022   0.025   0.040   0.042   0.051   0.063   0.071
  0.083   0.101   0.102   0.115   0.122   0.124   0.130   0.132
  0.149   0.153   0.158   0.163   0.175   0.175   0.182   0.185
  0.192   0.205   0.209   0.216   0.222   0.229   0.239   0.247
  0.256   0.261   0.272   0.275   0.276   0.284   0.288   0.291
  0.298   0.305   0.307   0.312   0.318   0.322   0.324   0.327
  0.334   0.340   0.341   0.344   0.347   0.347   0.351   0.355
  0.362   0.364   0.372   0.378   0.378   0.383   0.385   0.386
  0.388   0.393   0.394   0.398   0.400   0.402   0.408   0.412
  0.415   0.418   0.420   0.429   0.431   0.435   0.436   0.439
  0.443   0.447   0.448   0.450   0.453   0.458   0.458   0.462
  0.467   0.469   0.474   0.477   0.483   0.485   0.489   0.493
  0.495   0.504   0.507   0.510   0.515   0.515   0.522   0.525
  0.526   0.530   0.533   0.535   0.538   0.543   0.546   0.549
  0.555   0.562   0.572   0.576   0.579   0.582   0.584   0.592
  0.597   0.604   0.609   0.609   0.616   0.622   0.628   0.637
  0.642   0.646   0.650   0.654   0.656   0.664   0.665   0.671
  0.675   0.677   0.688   0.695   0.699   0.701   0.710   0.714
  0.717   0.727   0.728   0.735   0.738   0.742   0.746   0.754
  0.758   0.762   0.766   0.771   0.775   0.781   0.782   0.787
  0.792   0.794   0.797   0.804   0.809   0.815   0.822   0.824
  0.829   0.833   0.834   0.844   0.846   0.850   0.850   0.855
  0.860   0.865   0.868   0.876   0.880   0.890   0.896   0.898
  0.909   0.911   0.914   0.918   0.921   0.924   0.931   0.938
  0.943   0.948   0.951   0.953   0.959   0.962   0.967   0.974
  0.978   0.982   0.983   0.989   0.995   1.004   1.008   1.014
  1.023   1.026   1.032   1.034   1.048   1.053   1.056   1.059
  1.062   1.070   1.078   1.080   1.084   1.093   1.098   1.098
  1.103   1.104   1.107   1.123   1.126   1.130   1.139   1.141
  1.149   1.155   1.163   1.170   1.175   1.183   1.197   1.198
  1.200   1.205   1.214   1.219   1.226   1.236   1.238   1.244
  1.254   1.261   1.268   1.270   1.282   1.290   1.299   1.301
  1.307   1.309   1.320   1.328   1.334   1.346   1.348   1.352
  1.357   1.361   1.365   1.373   1.379   1.381   1.383   1.389
  1.393   1.401   1.418   1.423   1.425   1.429   1.435   1.440
  1.445   1.449   1.453   1.461   1.475   1.476   1.481   1.487
  1.489   1.501   1.502   1.511   1.513   1.517   1.523   1.535
  1.547   1.551   1.565   1.567   1.573   1.583   1.586   1.590
  1.607   1.613   1.618   1.624   1.629   1.639   1.643   1.648
  1.652   1.660   1.661   1.670   1.679   1.689   1.694   1.704
  1.707   1.710   1.719   1.724   1.728   1.736   1.743   1.747
  1.762   1.766   1.781   1.786   1.792   1.800   1.806   1.810
  1.812   1.822   1.838   1.859   1.866   1.881   1.887   1.890
  1.894   1.896   1.915   1.917   1.932   1.935   1.939   1.945
  1.968   1.975   1.977   1.979   1.986   1.990   1.995   2.005
  2.012   2.022   2.028   2.037   2.043   2.048   2.055   2.074
  2.076   2.088   2.105   2.109   2.111   2.119   2.126   2.133
  2.139   2.155   2.157   2.173   2.177   2.184   2.191   2.201
  2.205   2.211   2.218   2.226   2.229   2.243   2.247   2.255
  2.264   2.279   2.288   2.292   2.296   2.297   2.306   2.314
  2.318   2.328   2.333   2.346   2.349   2.362   2.369   2.371
  2.375   2.383   2.389   2.400   2.405   2.408   2.422   2.431
  2.437   2.441   2.448   2.459   2.461   2.466   2.472   2.479
  2.483   2.496   2.500   2.512   2.521   2.521   2.527   2.532
  2.534   2.539   2.545   2.546   2.559   2.562   2.567   2.589
  2.608   2.612   2.630   2.632   2.639   2.644   2.655   2.660
  2.666   2.669   2.678   2.682   2.694   2.699   2.718   2.724
  2.731   2.736   2.749   2.757   2.760   2.764   2.774   2.778
  2.786   2.789   2.792   2.804   2.809   2.814   2.821   2.828
  2.834   2.840   2.847   2.857   2.869   2.875   2.877   2.884
  2.890   2.895   2.898   2.906   2.910   2.917   2.923   2.933
  2.936   2.944   2.948   2.953   2.959   2.963   2.976   2.976
  2.981   2.990   3.002   3.004   3.006   3.010   3.019   3.024
  3.025   3.034   3.036   3.045   3.053   3.055   3.059   3.061
  3.064   3.067   3.071   3.074   3.080   3.082   3.085   3.087
  3.092   3.093   3.102   3.108   3.120   3.122   3.126   3.132
  3.140   3.144   3.151   3.156   3.162   3.164   3.169   3.171
  3.178   3.181   3.182   3.189   3.195   3.198   3.201   3.207
  3.212   3.213   3.221   3.221   3.230   3.234   3.238   3.241
  3.246   3.250   3.255   3.258   3.266   3.267   3.268   3.276
  3.283   3.286   3.287   3.293   3.295   3.300   3.303   3.306
  3.308   3.319   3.321   3.327   3.329   3.334   3.336   3.343
  3.352   3.357   3.362   3.374   3.377   3.388   3.388   3.399
  3.400   3.404   3.406   3.415   3.419   3.420   3.430   3.438
  3.439   3.451   3.454   3.458   3.467   3.471   3.475   3.482
  3.483   3.491   3.496   3.503   3.507   3.511   3.518   3.521
  3.526   3.537   3.540   3.546   3.565   3.566   3.576   3.583
  3.587   3.598   3.608   3.617   3.623   3.629   3.630   3.639
  3.658   3.665   3.669   3.680   3.687   3.691   3.696   3.699
  3.710   3.714   3.723   3.735   3.740   3.742   3.748   3.759
  3.765   3.776   3.778   3.783   3.795   3.803   3.808   3.812
  3.815   3.823   3.833   3.840   3.849   3.858   3.876   3.880
  3.889   3.902   3.905   3.912   3.917   3.920   3.929   3.933
  3.937   3.939   3.942   3.950   3.955   3.962   3.973   3.982
  3.990   3.995   4.003   4.006   4.016   4.020   4.026   4.033
  4.049   4.064   4.068   4.072   4.078   4.087   4.093   4.098
  4.099   4.113   4.119   4.138   4.147   4.150   4.161   4.172
  4.173   4.186   4.190   4.198   4.204   4.205   4.211   4.229
  4.231   4.241   4.244   4.247   4.257   4.263   4.272   4.281
  4.288   4.290   4.303   4.307   4.319   4.325   4.327   4.333
  4.340   4.351   4.359   4.366   4.372   4.375   4.388   4.396
  4.405   4.415   4.426   4.434   4.438   4.442   4.445   4.450
  4.465   4.486   4.494   4.500   4.515   4.523   4.527   4.537
  4.545   4.551   4.560   4.566   4.589   4.592   4.605   4.615
  4.623   4.633   4.643   4.651   4.663   4.680   4.683   4.694
  4.711   4.719   4.725   4.745   4.755   4.763   4.771   4.792
  4.797   4.809   4.812   4.813   4.825   4.835   4.846   4.865
  4.875   4.878   4.889   4.895   4.900   4.907   4.918   4.935
  4.938   4.949   4.950   4.967   4.973   4.982   4.985   4.989
  4.994   5.003   5.007   5.014   5.025   5.039   5.045   5.052
  5.069   5.082   5.091   5.097   5.111   5.113   5.115   5.118
  5.131   5.143   5.150   5.158   5.168   5.180   5.183   5.191
  5.207   5.213   5.239   5.265   5.276   5.302   5.305   5.315
  5.324   5.343   5.350   5.376   5.380   5.401   5.420   5.428
  5.450   5.464   5.477   5.490   5.497   5.499   5.510   5.540
  5.561   5.563   5.576   5.591   5.598   5.609   5.616   5.651
  5.674   5.698   5.720   5.721   5.744   5.754   5.759   5.793
  5.800   5.819   5.837   5.854   5.861   5.890   5.907   5.918
  5.945   5.963   5.998   6.016   6.055   6.087   6.132   6.180
  6.199   6.239   6.252   6.269   6.306   6.354   6.383   6.404
  6.445   6.490   6.600   6.873   6.991   7.078   8.067   8.923
  9.788  10.079  10.653  11.141  11.314  11.618  12.011  12.110
 12.398  12.643  12.785  12.839  12.876  12.945  13.125  13.202
 13.321  13.376  13.431  14.010  14.227  14.658  15.063  15.089
 --------------------------------------------------------------
 
          Ground-State Mulliken Net Atomic Charges

     Atom                 Charge (a.u.)
  ----------------------------------------
      1 C                    -0.092443
      2 C                    -0.129425
      3 C                    -0.080045
      4 C                    -0.117362
      5 N                    -0.145185
      6 C                     0.081884
      7 C                     0.100113
      8 N                    -0.177828
      9 C                    -0.016674
     10 C                    -0.080728
     11 N                    -0.217363
     12 C                     0.051783
     13 C                     0.057780
     14 S                     0.405373
     15 N                    -0.305476
     16 C                    -0.071001
     17 S                     0.220675
     18 C                     0.046087
     19 C                    -0.103810
     20 N                    -0.170148
     21 C                     0.041636
     22 C                    -0.020050
     23 C                    -0.049461
     24 N                    -0.129916
     25 C                    -0.160652
     26 S                     0.134007
     27 C                    -0.050170
     28 C                    -0.149561
     29 C                    -0.183293
     30 H                     0.133144
     31 H                     0.120094
     32 H                     0.120121
     33 H                     0.138328
     34 H                     0.138129
     35 H                     0.128096
     36 H                     0.138125
     37 H                     0.132098
     38 H                     0.128322
     39 H                     0.134794
  ----------------------------------------
  Sum of atomic charges =     0.000000

 -----------------------------------------------------------------
                    Cartesian Multipole Moments
 -----------------------------------------------------------------
    Charge (ESU x 10^10)
                 0.0000
    Dipole Moment (Debye)
         X       0.1971      Y       0.9484      Z       1.0388
       Tot       1.4204
    Quadrupole Moments (Debye-Ang)
        XX    -155.6958     XY       7.3048     YY    -167.3814
        XZ       0.5518     YZ      -0.0597     ZZ    -182.8794
    Octopole Moments (Debye-Ang^2)
       XXX     142.0012    XXY      -5.5436    XYY     -22.0708
       YYY      46.4339    XXZ      -3.7553    XYZ      11.6434
       YYZ      15.7937    XZZ     -21.8251    YZZ     -12.8761
       ZZZ       4.4396
    Hexadecapole Moments (Debye-Ang^3)
      XXXX  -16515.7029   XXXY     769.6545   XXYY   -3631.9808
      XYYY    -246.1566   YYYY   -3216.9871   XXXZ      75.1994
      XXYZ      33.3072   XYYZ     -17.4186   YYYZ      20.6970
      XXZZ   -3387.1395   XYZZ       5.7007   YYZZ    -695.2421
      XZZZ       6.6515   YZZZ     -14.8896   ZZZZ    -491.5167
 -----------------------------------------------------------------
 Calculating analytic gradient of the SCF energy
 K construction time:  CPU 2902.94 s  wall 183.86 s
 Gradient of SCF Energy
            1           2           3           4           5           6
    1   0.0001298  -0.0012866   0.0005474   0.0014384   0.0002296  -0.0012842
    2  -0.0000608  -0.0005655  -0.0001428   0.0000093  -0.0002976   0.0000743
    3  -0.0000661  -0.0002733  -0.0000269  -0.0001375   0.0001071  -0.0000593
            7           8           9          10          11          12
    1   0.0012450  -0.0010770  -0.0007242   0.0007106  -0.0000549   0.0002577
    2   0.0002426   0.0005628   0.0000317   0.0000774  -0.0000108  -0.0004356
    3   0.0003215  -0.0001537  -0.0004367  -0.0005140   0.0001328   0.0003396
           13          14          15          16          17          18
    1  -0.0024805  -0.0001941   0.0005991   0.0028041   0.0011241   0.0005975
    2  -0.0002427  -0.0003901   0.0006793   0.0014997  -0.0008468  -0.0000275
    3  -0.0003549   0.0002645  -0.0005221  -0.0015843   0.0007163   0.0008786
           19          20          21          22          23          24
    1  -0.0104329  -0.0000483  -0.0006447   0.0106506  -0.0010115   0.0016682
    2  -0.0100320  -0.0004124   0.0038079   0.0053782  -0.0011497  -0.0008197
    3  -0.0015922  -0.0000738   0.0031613  -0.0015278   0.0001450  -0.0003027
           25          26          27          28          29          30
    1  -0.0022840  -0.0016687   0.0010787   0.0011340  -0.0012700   0.0000072
    2  -0.0017837   0.0008988   0.0027126   0.0013983  -0.0012878   0.0001905
    3   0.0062240  -0.0023857   0.0001148  -0.0010880  -0.0008268   0.0002918
           31          32          33          34          35          36
    1   0.0002365  -0.0002785   0.0000912   0.0003063   0.0002480  -0.0005343
    2   0.0005396   0.0001380   0.0001094  -0.0002367   0.0000695   0.0007211
    3   0.0000762   0.0001593   0.0000058   0.0004217  -0.0002987  -0.0017228
           37          38          39
    1  -0.0004945   0.0005366   0.0001283
    2  -0.0001477  -0.0000802  -0.0001711
    3  -0.0001117   0.0005722   0.0001264
 Max gradient component =       1.065E-02
 RMS gradient           =       2.072E-03
 Gradient time:  CPU 3357.94 s  wall 214.82 s
 Geometry Optimization Parameters
   NAtoms,    NIC,     NZ,  NCons,   NDum,   NFix, NCnnct, MaxDiis
       39     293       0       3       0       0       0       0


** CONSTRAINED OPTIMIZATION IN DELOCALIZED INTERNAL COORDINATES **
   Searching for a Minimum

   Optimization Cycle:   1

                       Coordinates (Angstroms)
     ATOM                X               Y               Z
      1  C         7.7000562131    0.4365684052   -0.2622758828
      2  C         6.9972627470    1.5826226186    0.0720604047
      3  C         6.9802495669   -0.7139630766   -0.5417865243
      4  C         5.6196114117    1.5302518422    0.1212717887
      5  N         5.6558743581   -0.7801508907   -0.4949207151
      6  C         4.9859881825    0.3216670466   -0.1638757047
      7  C         3.5048043495    0.2470343706   -0.1120479622
      8  N         2.8452364836    1.3657487442   -0.2358876469
      9  C         2.7740189735   -0.9712679251    0.0832825951
     10  C         1.4914287560    1.4094034130   -0.1971321393
     11  N         3.2559410367   -2.1990312206    0.2873820648
     12  C         1.3428936378   -0.9198478416    0.1134969140
     13  C         0.6603610638    0.3263258624   -0.0298436084
     14  S         1.9894495198   -3.1645109636    0.4688918955
     15  N         0.7806411249   -2.1098904305    0.3145070531
     16  C        -0.7879140939    0.4512764223    0.0296406141
     17  S        -1.8414921839   -0.9060988342   -0.0361774505
     18  C        -1.5597945566    1.6064060422    0.1571749162
     19  C        -3.2807114009    0.0030214099    0.0681472225
     20  N        -1.0842039239    2.8795736261    0.2530988410
     21  C        -2.9675174853    1.3521793743    0.1825849943
     22  C        -4.5883040310   -0.6129149976    0.0543106991
     23  C        -1.9787293049    3.8128268197    0.3593780880
     24  N        -3.8774723943    2.3569422378    0.2950045744
     25  C        -5.2031503832   -1.3010137400    1.0640712109
     26  S        -5.6147242678   -0.5400792946   -1.3421393383
     27  C        -3.3834310559    3.5538754622    0.3795513070
     28  C        -6.4877038474   -1.7771339777    0.7083660694
     29  C        -6.8399386752   -1.4471927871   -0.5624563510
     30  H         8.7799129414    0.4322087787   -0.3059684540
     31  H         7.5180219990    2.5051864943    0.2941632302
     32  H         7.4899013822   -1.6290935548   -0.8188157352
     33  H         5.0236193936    2.3947063988    0.3704891598
     34  H         1.0641868505    2.3945048376   -0.2908096212
     35  H        -1.6232048669    4.8352299394    0.4318510413
     36  H        -4.7391763434   -1.4439200269    2.0253714305
     37  H        -4.0818114122    4.3786746526    0.4705091879
     38  H        -7.1172528438   -2.3469333776    1.3747320520
     39  H        -7.7549233916   -1.6826315900   -1.0785251057
   Point Group: c1    Number of degrees of freedom:   111


   Energy is  -2291.146088354

              Constraints and their Current Values
                                        Value     Constraint
   Dihedral:        4   6   7   8       21.915       21.822
   Dihedral:       10  13  16  17      169.085      169.064
   Dihedral:       17  19  22  25       75.001       75.000

 Attempting to Generate Delocalized Internal Coordinates

   Using Lagrange Multiplier Algorithm


114 Hessian modes will be used to form the next step
  Hessian Eigenvalues:
    -0.977753   -0.977753   -0.977753    0.045000    0.045000    0.045000
     0.045000    0.045000    0.045000    0.045000    0.045000    0.045000
     0.045000    0.045000    0.045000    0.045000    0.045001    0.045001
     0.045001    0.045001    0.045001    0.045001    0.045001    0.045002
     0.045002    0.045002    0.045002    0.045003    0.045003    0.045004
     0.045004    0.045007    0.045008    0.045011    0.045025    0.045042
     0.159985    0.159992    0.159996    0.159998    0.159999    0.159999
     0.160000    0.160000    0.160000    0.160000    0.219998    0.221296
     0.223765    0.224234    0.233056    0.237962    0.243336    0.244277
     0.249685    0.249909    0.249932    0.249960    0.249971    0.249981
     0.249981    0.249983    0.249989    0.249990    0.249993    0.249993
     0.249995    0.312595    0.327535    0.334459    0.341192    0.341256
     0.354114    0.354472    0.355757    0.357029    0.359040    0.360701
     0.360954    0.362567    0.363670    0.364147    0.369052    0.372793
     0.376138    0.388453    0.390986    0.406991    0.407223    0.418660
     0.432515    0.440848    0.460521    0.465839    0.471161    0.473690
     0.482786    0.484038    0.485870    0.485956    0.504407    0.517477
     0.518989    0.525383    0.557629    0.572590    0.582389    0.589743
     0.639523    0.655133    0.663889    1.022753    1.022753    1.022753

 Minimum Search - Taking P-RFO Step
 Searching for Lamda that Maximizes Along the Constraint modes Only
 Value Taken    Lamda =   0.00000603
 Searching for Lamda that Minimizes Along All other modes
 Value Taken    Lamda =  -0.00076138
 Step Taken.  Stepsize is  0.083658

                             Maximum     Tolerance    Cnvgd?
         Gradient            0.005043       0.000300      NO
         Displacement        0.032988       0.001200      NO
         Energy change     *********       0.000001      NO


 New Cartesian Coordinates Obtained by Inverse Iteration

 Displacement from previous Coordinates is:  0.417607
 ----------------------------------------------------------------
             Standard Nuclear Orientation (Angstroms)
    I     Atom           X                Y                Z
 ----------------------------------------------------------------
    1      C       7.7000619817     0.4090237592    -0.2926782280
    2      C       7.0135116993     1.5575686897     0.0667555106
    3      C       6.9660707171    -0.7325391156    -0.5714540731
    4      C       5.6352141723     1.5166354019     0.1372456518
    5      N       5.6426070148    -0.7882897684    -0.5020180655
    6      C       4.9886311835     0.3156264544    -0.1487241494
    7      C       3.5070414178     0.2536056772    -0.0855494520
    8      N       2.8568403748     1.3788238580    -0.1967551289
    9      C       2.7692286489    -0.9598895377     0.1063411514
   10      C       1.5026545441     1.4333021429    -0.1586388237
   11      N       3.2429604640    -2.1923053975     0.2997090154
   12      C       1.3385231144    -0.8976751966     0.1382290337
   13      C       0.6653682350     0.3538018208    -0.0028542862
   14      S       1.9692331106    -3.1487560980     0.4767357439
   15      N       0.7670057113    -2.0850936868     0.3328263401
   16      C      -0.7856063774     0.4794799635     0.0418045000
   17      S      -1.8274656974    -0.8829927460    -0.0394946797
   18      C      -1.5663316633     1.6316191467     0.1539751055
   19      C      -3.2683684714     0.0165836475     0.0664936623
   20      N      -1.1045875946     2.9103243837     0.2517699293
   21      C      -2.9712546634     1.3643398273     0.1670846918
   22      C      -4.5765629951    -0.6238288589     0.0515043614
   23      C      -2.0112168847     3.8331030180     0.3493028447
   24      N      -3.8967867667     2.3560054904     0.2714198262
   25      C      -5.1833825094    -1.3215094437     1.0549342844
   26      S      -5.5976682847    -0.5556387705    -1.3425199190
   27      C      -3.4140278223     3.5561759306     0.3583152847
   28      C      -6.4682508347    -1.8027486076     0.7028647151
   29      C      -6.8219724189    -1.4624452004    -0.5640327719
   30      H       8.7787389517     0.3948939643    -0.3581920619
   31      H       7.5459471714     2.4724895090     0.2885118926
   32      H       7.4642277867    -1.6481404988    -0.8687908847
   33      H       5.0493627013     2.3831300476     0.4026273706
   34      H       1.0808339587     2.4211856576    -0.2538231524
   35      H      -1.6703342474     4.8598459129     0.4277408323
   36      H      -4.7173354670    -1.4682877448     2.0176937603
   37      H      -4.1190140452     4.3753668263     0.4454250833
   38      H      -7.0985220512    -2.3775114314     1.3640794191
   39      H      -7.7373706349    -1.6947187572    -1.0811892194
 ----------------------------------------------------------------
 Molecular Point Group                 C1    NOp =  1
 Largest Abelian Subgroup              C1    NOp =  1
 Nuclear Repulsion Energy =  2923.7327511409 hartrees
 There are      110 alpha and      110 beta electrons
 Applying Cartesian multipole field
    Component          Value
    ---------          -----
     (2,0,0)        1.00000E-12
     (0,2,0)        2.00000E-11
     (0,0,2)       -3.00000E-11
 Nucleus-field energy     =     0.0000000591 hartrees
 Requested basis set is cc-pVTZ
 There are 356 shells and 1022 basis functions
 A cutoff of  1.0D-11 yielded  30882 shell pairs
 There are    243352 function pairs (    317655 Cartesian)
 Smallest overlap matrix eigenvalue = 2.85E-05
 Guess MOs from SCF MO coefficient file
 Reading MOs from coefficient file
 Reading MOs from coefficient file
 Long-range K will be added via erf
 Coulomb attenuation parameter = 0.2 bohr**(-1)
 A restricted hybrid HF-DFT SCF calculation will be
 performed using Pulay DIIS extrapolation
 Exchange:     0.2220 Hartree-Fock + 1.0000 wB97X-D + LR-HF
 Correlation:  1.0000 wB97X-D
 Using SG-2 standard quadrature grid
 Dispersion:   Grimme D
 SCF converges when DIIS error is below 1.0E-08
 Geometry optimization detected.  Setting ReadMinima to 0
 Setting SaveMinima to 0
 using 16 threads for integral computing 
 using 16 threads for integral computing 
 K construction time:  CPU 1113.93 s  wall 73.57 s
 -------------------------------------------------------
 OpenMP BLAS3 based DFT computing Module                
 Release: version 1.0, May 2013, Q-Chem Inc. Pittsburgh 
 -------------------------------------------------------
 ---------------------------------------
  Cycle       Energy         DIIS Error
 ---------------------------------------
    1   -2291.1465804141      2.24E-04
 K construction time:  CPU 1117.45 s  wall 73.79 s
    2   -2291.1463718175      2.45E-05
 K construction time:  CPU 818.57 s  wall 54.12 s
    3   -2291.1464463535      2.40E-05
 K construction time:  CPU 776.75 s  wall 51.30 s
    4   -2291.1465080226      9.29E-06
 K construction time:  CPU 724.76 s  wall 47.88 s
    5   -2291.1465193485      3.40E-06
 K construction time:  CPU 667.35 s  wall 44.08 s
    6   -2291.1465211276      1.17E-06
 K construction time:  CPU 598.93 s  wall 39.58 s
    7   -2291.1465213515      4.13E-07
 K construction time:  CPU 542.63 s  wall 35.74 s
    8   -2291.1465213851      1.78E-07
 K construction time:  CPU 498.81 s  wall 32.77 s
    9   -2291.1465213915      8.53E-08
 K construction time:  CPU 432.17 s  wall 28.36 s
   10   -2291.1465213930      3.33E-08
 K construction time:  CPU 383.19 s  wall 25.08 s
   11   -2291.1465213913      1.38E-08
 K construction time:  CPU 336.37 s  wall 22.09 s
   12   -2291.1465213899      6.17E-09 Convergence criterion met
 ---------------------------------------
 SCF time:  CPU 10807.63 s  wall 732.07 s
 SCF   energy in the final basis set = -2291.1465213899
 Total energy in the final basis set = -2291.1465213899
 
 --------------------------------------------------------------
 
                    Orbital Energies (a.u.)
 --------------------------------------------------------------
 
 Alpha MOs
 -- Occupied --
-89.147 -89.099 -89.077 -14.483 -14.480 -14.461 -14.459 -14.446
-14.434 -10.356 -10.353 -10.351 -10.344 -10.343 -10.341 -10.340
-10.338 -10.337 -10.336 -10.332 -10.331 -10.327 -10.324 -10.317
-10.310 -10.301 -10.299 -10.296 -10.294  -8.157  -8.113  -8.092
 -6.107  -6.102  -6.101  -6.062  -6.058  -6.057  -6.041  -6.037
 -6.035  -1.144  -1.100  -1.069  -1.049  -1.028  -1.013  -1.003
 -0.986  -0.925  -0.912  -0.897  -0.878  -0.867  -0.852  -0.838
 -0.811  -0.777  -0.771  -0.749  -0.739  -0.730  -0.716  -0.710
 -0.670  -0.658  -0.645  -0.630  -0.628  -0.620  -0.608  -0.604
 -0.586  -0.576  -0.568  -0.561  -0.559  -0.546  -0.543  -0.527
 -0.512  -0.507  -0.499  -0.498  -0.493  -0.492  -0.485  -0.481
 -0.475  -0.468  -0.463  -0.461  -0.449  -0.438  -0.428  -0.425
 -0.420  -0.410  -0.394  -0.376  -0.371  -0.360  -0.358  -0.342
 -0.338  -0.337  -0.334  -0.331  -0.319  -0.277
 -- Virtual --
 -0.053  -0.021   0.025   0.041   0.041   0.051   0.065   0.071
  0.083   0.101   0.102   0.115   0.123   0.124   0.130   0.132
  0.149   0.153   0.158   0.164   0.175   0.176   0.182   0.185
  0.192   0.205   0.209   0.216   0.223   0.229   0.238   0.246
  0.256   0.261   0.272   0.274   0.275   0.284   0.287   0.291
  0.297   0.305   0.307   0.312   0.318   0.322   0.324   0.327
  0.333   0.339   0.341   0.345   0.347   0.348   0.351   0.355
  0.361   0.364   0.372   0.378   0.378   0.383   0.385   0.387
  0.388   0.393   0.394   0.398   0.400   0.403   0.408   0.412
  0.415   0.418   0.419   0.429   0.431   0.435   0.436   0.439
  0.444   0.447   0.447   0.450   0.453   0.458   0.459   0.462
  0.467   0.469   0.474   0.477   0.483   0.485   0.489   0.493
  0.496   0.503   0.506   0.509   0.515   0.515   0.522   0.525
  0.526   0.530   0.533   0.535   0.538   0.543   0.546   0.549
  0.555   0.563   0.571   0.576   0.580   0.582   0.585   0.592
  0.597   0.604   0.608   0.609   0.616   0.622   0.629   0.637
  0.642   0.646   0.650   0.654   0.656   0.664   0.665   0.672
  0.675   0.677   0.689   0.695   0.699   0.701   0.710   0.715
  0.717   0.727   0.728   0.736   0.737   0.742   0.746   0.754
  0.758   0.762   0.766   0.770   0.775   0.781   0.783   0.788
  0.792   0.794   0.797   0.804   0.808   0.816   0.822   0.824
  0.830   0.833   0.834   0.844   0.844   0.849   0.851   0.855
  0.861   0.865   0.868   0.875   0.880   0.891   0.896   0.898
  0.909   0.911   0.914   0.918   0.921   0.925   0.932   0.938
  0.943   0.948   0.951   0.952   0.959   0.963   0.968   0.974
  0.979   0.982   0.983   0.989   0.995   1.004   1.009   1.014
  1.023   1.026   1.032   1.034   1.048   1.053   1.057   1.058
  1.063   1.071   1.079   1.080   1.084   1.094   1.098   1.099
  1.103   1.104   1.107   1.123   1.125   1.129   1.140   1.141
  1.149   1.155   1.162   1.170   1.174   1.182   1.197   1.198
  1.200   1.206   1.213   1.219   1.227   1.235   1.238   1.245
  1.253   1.262   1.268   1.272   1.282   1.289   1.298   1.301
  1.307   1.309   1.320   1.327   1.335   1.346   1.349   1.352
  1.357   1.361   1.365   1.373   1.380   1.381   1.383   1.389
  1.392   1.401   1.418   1.424   1.425   1.429   1.435   1.441
  1.445   1.449   1.452   1.461   1.474   1.475   1.481   1.486
  1.489   1.501   1.502   1.510   1.511   1.517   1.522   1.535
  1.548   1.551   1.565   1.567   1.573   1.583   1.586   1.590
  1.605   1.615   1.618   1.623   1.629   1.640   1.644   1.648
  1.652   1.661   1.661   1.671   1.679   1.689   1.694   1.703
  1.707   1.709   1.719   1.724   1.729   1.735   1.742   1.747
  1.763   1.766   1.781   1.786   1.790   1.801   1.806   1.810
  1.812   1.824   1.839   1.858   1.867   1.884   1.887   1.892
  1.894   1.896   1.916   1.918   1.932   1.935   1.940   1.946
  1.968   1.975   1.978   1.980   1.986   1.992   1.995   2.005
  2.012   2.023   2.029   2.037   2.042   2.049   2.055   2.074
  2.077   2.088   2.105   2.108   2.111   2.119   2.127   2.132
  2.139   2.154   2.156   2.173   2.177   2.184   2.192   2.202
  2.204   2.211   2.218   2.226   2.230   2.243   2.247   2.256
  2.264   2.278   2.288   2.292   2.296   2.297   2.308   2.313
  2.318   2.328   2.334   2.346   2.348   2.362   2.369   2.370
  2.375   2.383   2.389   2.399   2.406   2.408   2.422   2.432
  2.437   2.442   2.448   2.459   2.460   2.466   2.472   2.479
  2.483   2.497   2.502   2.512   2.521   2.524   2.527   2.532
  2.535   2.539   2.545   2.546   2.559   2.563   2.567   2.590
  2.607   2.612   2.630   2.633   2.639   2.644   2.656   2.660
  2.665   2.668   2.678   2.683   2.694   2.699   2.718   2.724
  2.732   2.737   2.749   2.757   2.760   2.764   2.774   2.778
  2.786   2.790   2.791   2.803   2.809   2.813   2.820   2.828
  2.834   2.838   2.845   2.857   2.869   2.876   2.877   2.883
  2.890   2.895   2.897   2.907   2.910   2.917   2.924   2.934
  2.935   2.944   2.949   2.953   2.959   2.963   2.974   2.976
  2.982   2.989   3.002   3.003   3.007   3.010   3.019   3.024
  3.027   3.034   3.037   3.045   3.052   3.056   3.060   3.061
  3.063   3.068   3.070   3.074   3.080   3.082   3.085   3.088
  3.091   3.093   3.101   3.108   3.121   3.123   3.126   3.133
  3.140   3.144   3.152   3.155   3.161   3.164   3.168   3.170
  3.178   3.182   3.183   3.189   3.195   3.197   3.200   3.208
  3.211   3.213   3.221   3.222   3.229   3.234   3.238   3.242
  3.245   3.251   3.254   3.257   3.266   3.267   3.269   3.276
  3.284   3.286   3.287   3.293   3.294   3.300   3.302   3.306
  3.308   3.319   3.320   3.327   3.328   3.333   3.336   3.344
  3.353   3.357   3.361   3.374   3.377   3.388   3.389   3.398
  3.399   3.404   3.407   3.414   3.419   3.419   3.430   3.437
  3.439   3.451   3.455   3.458   3.467   3.471   3.475   3.482
  3.483   3.491   3.496   3.504   3.508   3.513   3.518   3.521
  3.525   3.537   3.540   3.547   3.565   3.567   3.576   3.582
  3.587   3.600   3.607   3.616   3.623   3.629   3.631   3.639
  3.656   3.664   3.671   3.679   3.687   3.690   3.696   3.699
  3.710   3.713   3.723   3.735   3.741   3.745   3.747   3.758
  3.764   3.776   3.777   3.784   3.795   3.805   3.808   3.812
  3.814   3.822   3.832   3.840   3.848   3.859   3.876   3.881
  3.887   3.900   3.906   3.911   3.917   3.920   3.929   3.933
  3.936   3.938   3.942   3.949   3.954   3.962   3.974   3.982
  3.991   3.995   4.001   4.006   4.016   4.020   4.026   4.033
  4.049   4.065   4.066   4.072   4.078   4.086   4.092   4.097
  4.099   4.112   4.119   4.138   4.144   4.149   4.160   4.172
  4.173   4.185   4.189   4.199   4.204   4.205   4.210   4.228
  4.232   4.242   4.243   4.247   4.257   4.262   4.270   4.282
  4.287   4.290   4.303   4.306   4.320   4.324   4.326   4.333
  4.340   4.351   4.359   4.366   4.374   4.376   4.387   4.395
  4.406   4.414   4.426   4.434   4.438   4.442   4.445   4.450
  4.465   4.486   4.493   4.500   4.514   4.523   4.527   4.535
  4.543   4.551   4.557   4.564   4.588   4.591   4.605   4.613
  4.623   4.633   4.643   4.651   4.662   4.680   4.684   4.693
  4.709   4.719   4.725   4.746   4.755   4.763   4.771   4.792
  4.798   4.808   4.810   4.813   4.824   4.835   4.845   4.865
  4.875   4.876   4.889   4.896   4.899   4.906   4.918   4.936
  4.937   4.948   4.949   4.967   4.973   4.981   4.984   4.989
  4.992   5.003   5.008   5.014   5.023   5.037   5.045   5.050
  5.070   5.082   5.091   5.099   5.109   5.113   5.115   5.118
  5.131   5.143   5.150   5.158   5.168   5.179   5.182   5.190
  5.205   5.212   5.239   5.265   5.277   5.302   5.305   5.316
  5.325   5.342   5.351   5.375   5.378   5.400   5.419   5.427
  5.449   5.464   5.476   5.490   5.496   5.497   5.506   5.538
  5.560   5.563   5.577   5.591   5.598   5.609   5.615   5.652
  5.674   5.700   5.719   5.720   5.742   5.753   5.759   5.792
  5.800   5.822   5.838   5.856   5.863   5.890   5.908   5.919
  5.945   5.963   6.001   6.017   6.055   6.084   6.130   6.181
  6.200   6.240   6.251   6.270   6.306   6.353   6.382   6.402
  6.446   6.489   6.604   6.873   6.989   7.079   8.074   8.926
  9.772  10.055  10.636  11.140  11.310  11.574  12.007  12.100
 12.396  12.643  12.794  12.851  12.880  12.946  13.110  13.198
 13.328  13.418  13.442  14.015  14.228  14.660  15.063  15.091
 --------------------------------------------------------------
 
          Ground-State Mulliken Net Atomic Charges

     Atom                 Charge (a.u.)
  ----------------------------------------
      1 C                    -0.092344
      2 C                    -0.129405
      3 C                    -0.080224
      4 C                    -0.117921
      5 N                    -0.145223
      6 C                     0.082155
      7 C                     0.100710
      8 N                    -0.177564
      9 C                    -0.017003
     10 C                    -0.080894
     11 N                    -0.216895
     12 C                     0.053069
     13 C                     0.057487
     14 S                     0.405081
     15 N                    -0.305594
     16 C                    -0.072135
     17 S                     0.221277
     18 C                     0.045019
     19 C                    -0.104495
     20 N                    -0.170303
     21 C                     0.044598
     22 C                    -0.021007
     23 C                    -0.049561
     24 N                    -0.129388
     25 C                    -0.160147
     26 S                     0.135007
     27 C                    -0.050199
     28 C                    -0.149998
     29 C                    -0.183534
     30 H                     0.133151
     31 H                     0.120392
     32 H                     0.119854
     33 H                     0.138208
     34 H                     0.137318
     35 H                     0.128379
     36 H                     0.137174
     37 H                     0.131969
     38 H                     0.128591
     39 H                     0.134397
  ----------------------------------------
  Sum of atomic charges =     0.000000

 -----------------------------------------------------------------
                    Cartesian Multipole Moments
 -----------------------------------------------------------------
    Charge (ESU x 10^10)
                 0.0000
    Dipole Moment (Debye)
         X       0.2381      Y       0.9152      Z       0.9941
       Tot       1.3721
    Quadrupole Moments (Debye-Ang)
        XX    -155.6099     XY       7.0524     YY    -167.4108
        XZ       0.2828     YZ      -0.0415     ZZ    -182.8475
    Octopole Moments (Debye-Ang^2)
       XXX     144.9211    XXY      -6.1247    XYY     -23.8687
       YYY      44.0110    XXZ      -6.3345    XYZ      11.8535
       YYZ      15.1276    XZZ     -21.1099    YZZ     -13.6495
       ZZZ       2.9351
    Hexadecapole Moments (Debye-Ang^3)
      XXXX  -16488.3831   XXXY     764.7933   XXYY   -3623.2298
      XYYY    -245.3887   YYYY   -3225.9980   XXXZ      47.5416
      XXYZ      36.6837   XYYZ     -20.8937   YYYZ      21.1016
      XXZZ   -3380.0315   XYZZ       7.4071   YYZZ    -696.5353
      XZZZ       2.0042   YZZZ     -13.4715   ZZZZ    -491.9606
 -----------------------------------------------------------------
 Calculating analytic gradient of the SCF energy
 K construction time:  CPU 2905.38 s  wall 183.98 s
 Gradient of SCF Energy
            1           2           3           4           5           6
    1   0.0000958  -0.0002118   0.0000993   0.0001702   0.0000117  -0.0003725
    2  -0.0002296   0.0000268   0.0001036   0.0002475  -0.0000012  -0.0002558
    3  -0.0001777   0.0000580   0.0000216  -0.0003777   0.0001479   0.0006037
            7           8           9          10          11          12
    1   0.0005584  -0.0003044  -0.0000011   0.0005391   0.0001815  -0.0000144
    2  -0.0002248   0.0000392  -0.0001199   0.0004074   0.0000628  -0.0002381
    3  -0.0004450   0.0000949   0.0000638  -0.0000669  -0.0000892   0.0003375
           13          14          15          16          17          18
    1  -0.0007374  -0.0000272  -0.0004989   0.0007192   0.0011165  -0.0003074
    2  -0.0004740   0.0001969   0.0003429   0.0001055   0.0000989   0.0001913
    3  -0.0003884   0.0000137  -0.0002582  -0.0006008  -0.0008618   0.0007356
           19          20          21          22          23          24
    1  -0.0020956  -0.0005157  -0.0000301   0.0027192  -0.0007054   0.0005408
    2  -0.0016121  -0.0001900   0.0017046   0.0008696   0.0000098  -0.0012099
    3   0.0003551  -0.0000452   0.0014478  -0.0002749   0.0000119  -0.0003945
           25          26          27          28          29          30
    1  -0.0018390  -0.0002173   0.0006952   0.0001572  -0.0000783  -0.0000025
    2   0.0001466  -0.0004598   0.0006218   0.0003121  -0.0001779   0.0000197
    3   0.0005718  -0.0006376  -0.0000148  -0.0004740   0.0004391   0.0001518
           31          32          33          34          35          36
    1  -0.0000196  -0.0000156  -0.0000194   0.0001888   0.0001597   0.0001047
    2   0.0000316  -0.0000302   0.0000194  -0.0002090   0.0000130   0.0002643
    3  -0.0000677   0.0000648  -0.0000358   0.0000132  -0.0000781  -0.0000907
           37          38          39
    1  -0.0001280   0.0000692   0.0000150
    2  -0.0002630  -0.0001487   0.0000087
    3  -0.0000344   0.0001696   0.0001113
 Max gradient component =       2.719E-03
 RMS gradient           =       5.592E-04
 Gradient time:  CPU 3363.18 s  wall 215.01 s
 Geometry Optimization Parameters
   NAtoms,    NIC,     NZ,  NCons,   NDum,   NFix, NCnnct, MaxDiis
       39     293       0       3       0       0       0       0

 Cartesian Hessian Update
 Hessian Updated using BFGS Update


** CONSTRAINED OPTIMIZATION IN DELOCALIZED INTERNAL COORDINATES **
   Searching for a Minimum

   Optimization Cycle:   2

                       Coordinates (Angstroms)
     ATOM                X               Y               Z
      1  C         7.7000619817    0.4090237592   -0.2926782280
      2  C         7.0135116993    1.5575686897    0.0667555106
      3  C         6.9660707171   -0.7325391156   -0.5714540731
      4  C         5.6352141723    1.5166354019    0.1372456518
      5  N         5.6426070148   -0.7882897684   -0.5020180655
      6  C         4.9886311835    0.3156264544   -0.1487241494
      7  C         3.5070414178    0.2536056772   -0.0855494520
      8  N         2.8568403748    1.3788238580   -0.1967551289
      9  C         2.7692286489   -0.9598895377    0.1063411514
     10  C         1.5026545441    1.4333021429   -0.1586388237
     11  N         3.2429604640   -2.1923053975    0.2997090154
     12  C         1.3385231144   -0.8976751966    0.1382290337
     13  C         0.6653682350    0.3538018208   -0.0028542862
     14  S         1.9692331106   -3.1487560980    0.4767357439
     15  N         0.7670057113   -2.0850936868    0.3328263401
     16  C        -0.7856063774    0.4794799635    0.0418045000
     17  S        -1.8274656974   -0.8829927460   -0.0394946797
     18  C        -1.5663316633    1.6316191467    0.1539751055
     19  C        -3.2683684714    0.0165836475    0.0664936623
     20  N        -1.1045875946    2.9103243837    0.2517699293
     21  C        -2.9712546634    1.3643398273    0.1670846918
     22  C        -4.5765629951   -0.6238288589    0.0515043614
     23  C        -2.0112168847    3.8331030180    0.3493028447
     24  N        -3.8967867667    2.3560054904    0.2714198262
     25  C        -5.1833825094   -1.3215094437    1.0549342844
     26  S        -5.5976682847   -0.5556387705   -1.3425199190
     27  C        -3.4140278223    3.5561759306    0.3583152847
     28  C        -6.4682508347   -1.8027486076    0.7028647151
     29  C        -6.8219724189   -1.4624452004   -0.5640327719
     30  H         8.7787389517    0.3948939643   -0.3581920619
     31  H         7.5459471714    2.4724895090    0.2885118926
     32  H         7.4642277867   -1.6481404988   -0.8687908847
     33  H         5.0493627013    2.3831300476    0.4026273706
     34  H         1.0808339587    2.4211856576   -0.2538231524
     35  H        -1.6703342474    4.8598459129    0.4277408323
     36  H        -4.7173354670   -1.4682877448    2.0176937603
     37  H        -4.1190140452    4.3753668263    0.4454250833
     38  H        -7.0985220512   -2.3775114314    1.3640794191
     39  H        -7.7373706349   -1.6947187572   -1.0811892194
   Point Group: c1    Number of degrees of freedom:   111


   Energy is  -2291.146521390

              Constraints and their Current Values
                                        Value     Constraint
   Dihedral:        4   6   7   8       21.822       21.822
   Dihedral:       10  13  16  17      169.064      169.064
   Dihedral:       17  19  22  25       75.000       75.000
 Hessian Updated using BFGS Update

101 Hessian modes will be used to form the next step
  Hessian Eigenvalues:
     0.033281    0.045000    0.045000    0.045000    0.045000    0.045000
     0.045000    0.045000    0.045001    0.045001    0.045001    0.045001
     0.045001    0.045002    0.045002    0.045002    0.045002    0.045003
     0.045004    0.045004    0.045005    0.045008    0.045011    0.045025
     0.045040    0.047248    0.157107    0.159986    0.159995    0.159996
     0.159999    0.160000    0.160000    0.160000    0.160000    0.160128
     0.218626    0.220105    0.223081    0.224194    0.230681    0.233711
     0.238626    0.244116    0.245057    0.249686    0.249926    0.249940
     0.249969    0.249976    0.249981    0.249983    0.249989    0.249990
     0.249993    0.249994    0.284539    0.315331    0.328841    0.334534
     0.340598    0.342728    0.354098    0.354490    0.355793    0.357178
     0.359039    0.360587    0.360952    0.362212    0.364129    0.364821
     0.368855    0.373337    0.375928    0.390809    0.391490    0.407079
     0.409425    0.418771    0.432508    0.453262    0.459732    0.461863
     0.471244    0.473667    0.481101    0.484460    0.485770    0.486138
     0.506015    0.515961    0.524901    0.528934    0.557689    0.572648
     0.582360    0.589749    0.639480    0.655210    0.663761

 Minimum Search - Taking Simple RFO Step
 Searching for Lamda that Minimizes Along All modes
 Value Taken    Lamda =  -0.00020234
 Step Taken.  Stepsize is  0.061708

                             Maximum     Tolerance    Cnvgd?
         Gradient           0.002667      0.000300      NO
         Displacement       0.029178      0.001200      NO
         Energy change     -0.000433      0.000001      NO


 New Cartesian Coordinates Obtained by Inverse Iteration

 Displacement from previous Coordinates is:  0.385667
 ----------------------------------------------------------------
             Standard Nuclear Orientation (Angstroms)
    I     Atom           X                Y                Z
 ----------------------------------------------------------------
    1      C       7.6937098438     0.4298464516    -0.3306153326
    2      C       7.0082400275     1.5713664122     0.0520325305
    3      C       6.9609111309    -0.7133308753    -0.6062240196
    4      C       5.6311071419     1.5226104225     0.1457006110
    5      N       5.6394433950    -0.7769111515    -0.5131369078
    6      C       4.9864744247     0.3204597084    -0.1386270190
    7      C       3.5053813581     0.2509426801    -0.0599099185
    8      N       2.8490345164     1.3732903465    -0.1590100308
    9      C       2.7765231335    -0.9674825652     0.1337943245
   10      C       1.4944298706     1.4183887151    -0.1176247931
   11      N       3.2597655184    -2.1972830649     0.3207521903
   12      C       1.3455620752    -0.9149282873     0.1727091516
   13      C       0.6647695264     0.3331999959     0.0333776619
   14      S       1.9945071572    -3.1637871735     0.5021709574
   15      N       0.7844822887    -2.1078318975     0.3675169494
   16      C      -0.7876522053     0.4583102020     0.0670684068
   17      S      -1.8374037037    -0.8973637077    -0.0198648451
   18      C      -1.5608924515     1.6162557935     0.1603844349
   19      C      -3.2700494154     0.0136239960     0.0726904022
   20      N      -1.0888405712     2.8918632603     0.2542259714
   21      C      -2.9676563163     1.3586242720     0.1611367004
   22      C      -4.5831870662    -0.6267336387     0.0481129152
   23      C      -1.9898900240     3.8212693641     0.3383526395
   24      N      -3.8882299973     2.3581412259     0.2526917859
   25      C      -5.1984257085    -1.3203179634     1.0468613825
   26      S      -5.5935995019    -0.5451818290    -1.3497146421
   27      C      -3.3957950837     3.5541043809     0.3369620374
   28      C      -6.4864280257    -1.7902025077     0.6874269729
   29      C      -6.8296649170    -1.4426895312    -0.5808299278
   30      H       8.7708928485     0.4217817665    -0.4183456148
   31      H       7.5400303905     2.4867993755     0.2721409334
   32      H       7.4587104759    -1.6228517971    -0.9226081492
   33      H       5.0451477175     2.3837822511     0.4274573704
   34      H       1.0645921410     2.4035847191    -0.2114132501
   35      H      -1.6440650979     4.8462873275     0.4157543295
   36      H      -4.7396651526    -1.4740216233     2.0129079123
   37      H      -4.0927061699     4.3813125813     0.4144821979
   38      H      -7.1273889553    -2.3598561188     1.3423222982
   39      H      -7.7441710886    -1.6645112462    -1.1044335021
 ----------------------------------------------------------------
 Molecular Point Group                 C1    NOp =  1
 Largest Abelian Subgroup              C1    NOp =  1
 Nuclear Repulsion Energy =  2923.1886618490 hartrees
 There are      110 alpha and      110 beta electrons
 Applying Cartesian multipole field
    Component          Value
    ---------          -----
     (2,0,0)        1.00000E-12
     (0,2,0)        2.00000E-11
     (0,0,2)       -3.00000E-11
 Nucleus-field energy     =     0.0000000590 hartrees
 Requested basis set is cc-pVTZ
 There are 356 shells and 1022 basis functions
 A cutoff of  1.0D-11 yielded  30888 shell pairs
 There are    243430 function pairs (    317768 Cartesian)
 Smallest overlap matrix eigenvalue = 2.84E-05
 Guess MOs from SCF MO coefficient file
 Reading MOs from coefficient file
 Reading MOs from coefficient file
 Long-range K will be added via erf
 Coulomb attenuation parameter = 0.2 bohr**(-1)
 A restricted hybrid HF-DFT SCF calculation will be
 performed using Pulay DIIS extrapolation
 Exchange:     0.2220 Hartree-Fock + 1.0000 wB97X-D + LR-HF
 Correlation:  1.0000 wB97X-D
 Using SG-2 standard quadrature grid
 Dispersion:   Grimme D
 SCF converges when DIIS error is below 1.0E-08
 Geometry optimization detected.  Setting ReadMinima to 0
 Setting SaveMinima to 0
 using 16 threads for integral computing 
 using 16 threads for integral computing 
 K construction time:  CPU 1116.55 s  wall 73.76 s
 -------------------------------------------------------
 OpenMP BLAS3 based DFT computing Module                
 Release: version 1.0, May 2013, Q-Chem Inc. Pittsburgh 
 -------------------------------------------------------
 ---------------------------------------
  Cycle       Energy         DIIS Error
 ---------------------------------------
    1   -2291.1445903130      1.94E-04
 K construction time:  CPU 1115.74 s  wall 73.71 s
    2   -2291.1464587205      2.11E-05
 K construction time:  CPU 812.61 s  wall 53.73 s
    3   -2291.1465384923      2.00E-05
 K construction time:  CPU 763.82 s  wall 50.53 s
    4   -2291.1465822833      8.30E-06
 K construction time:  CPU 710.72 s  wall 47.11 s
    5   -2291.1465922208      2.93E-06
 K construction time:  CPU 659.20 s  wall 43.69 s
    6   -2291.1465935061      1.16E-06
 K construction time:  CPU 600.91 s  wall 39.76 s
    7   -2291.1465937059      4.19E-07
 K construction time:  CPU 541.70 s  wall 35.80 s
    8   -2291.1465937392      1.89E-07
 K construction time:  CPU 495.83 s  wall 32.58 s
    9   -2291.1465937470      8.21E-08
 K construction time:  CPU 438.98 s  wall 28.81 s
   10   -2291.1465937491      3.36E-08
 K construction time:  CPU 394.67 s  wall 25.84 s
   11   -2291.1465937484      1.44E-08
 K construction time:  CPU 350.40 s  wall 22.93 s
   12   -2291.1465937504      5.86E-09 Convergence criterion met
 ---------------------------------------
 SCF time:  CPU 10793.02 s  wall 731.72 s
 SCF   energy in the final basis set = -2291.1465937504
 Total energy in the final basis set = -2291.1465937504
 
 --------------------------------------------------------------
 
                    Orbital Energies (a.u.)
 --------------------------------------------------------------
 
 Alpha MOs
 -- Occupied --
-89.147 -89.099 -89.077 -14.483 -14.480 -14.461 -14.460 -14.445
-14.434 -10.356 -10.353 -10.351 -10.344 -10.343 -10.342 -10.340
-10.339 -10.336 -10.336 -10.332 -10.331 -10.327 -10.324 -10.317
-10.310 -10.301 -10.298 -10.296 -10.294  -8.157  -8.114  -8.092
 -6.107  -6.101  -6.101  -6.062  -6.059  -6.057  -6.041  -6.038
 -6.035  -1.143  -1.100  -1.069  -1.049  -1.028  -1.013  -1.003
 -0.986  -0.925  -0.912  -0.896  -0.877  -0.867  -0.852  -0.838
 -0.812  -0.777  -0.771  -0.748  -0.738  -0.730  -0.716  -0.710
 -0.670  -0.658  -0.645  -0.629  -0.628  -0.620  -0.608  -0.604
 -0.586  -0.576  -0.568  -0.561  -0.559  -0.546  -0.543  -0.527
 -0.512  -0.507  -0.499  -0.498  -0.493  -0.492  -0.484  -0.481
 -0.475  -0.468  -0.463  -0.461  -0.448  -0.438  -0.428  -0.425
 -0.420  -0.411  -0.394  -0.376  -0.371  -0.360  -0.357  -0.343
 -0.338  -0.337  -0.334  -0.331  -0.320  -0.277
 -- Virtual --
 -0.053  -0.022   0.025   0.041   0.042   0.051   0.065   0.071
  0.083   0.101   0.102   0.115   0.122   0.124   0.130   0.132
  0.149   0.154   0.158   0.164   0.175   0.175   0.182   0.185
  0.192   0.205   0.209   0.216   0.223   0.229   0.238   0.246
  0.256   0.261   0.271   0.275   0.275   0.284   0.287   0.291
  0.298   0.305   0.308   0.311   0.318   0.322   0.325   0.327
  0.334   0.340   0.341   0.345   0.347   0.347   0.352   0.355
  0.361   0.364   0.372   0.377   0.378   0.382   0.385   0.387
  0.388   0.393   0.394   0.398   0.400   0.403   0.408   0.412
  0.415   0.419   0.420   0.429   0.431   0.436   0.436   0.439
  0.444   0.447   0.447   0.450   0.453   0.458   0.459   0.462
  0.467   0.469   0.474   0.478   0.483   0.485   0.489   0.493
  0.496   0.504   0.507   0.510   0.515   0.515   0.522   0.525
  0.526   0.531   0.533   0.536   0.538   0.543   0.546   0.549
  0.555   0.563   0.571   0.576   0.579   0.582   0.584   0.593
  0.597   0.605   0.608   0.609   0.616   0.621   0.630   0.637
  0.642   0.646   0.650   0.655   0.655   0.664   0.665   0.671
  0.674   0.677   0.689   0.695   0.700   0.702   0.710   0.715
  0.717   0.727   0.729   0.736   0.737   0.742   0.746   0.755
  0.758   0.762   0.766   0.770   0.775   0.781   0.784   0.787
  0.791   0.794   0.798   0.804   0.808   0.816   0.822   0.825
  0.830   0.833   0.833   0.845   0.845   0.849   0.850   0.855
  0.861   0.864   0.868   0.876   0.881   0.891   0.896   0.898
  0.909   0.911   0.914   0.918   0.921   0.926   0.932   0.938
  0.943   0.949   0.951   0.952   0.959   0.963   0.969   0.974
  0.979   0.982   0.983   0.990   0.996   1.004   1.009   1.014
  1.023   1.026   1.032   1.034   1.047   1.053   1.057   1.059
  1.063   1.070   1.078   1.080   1.084   1.094   1.098   1.099
  1.103   1.105   1.107   1.122   1.124   1.131   1.140   1.142
  1.149   1.156   1.162   1.171   1.174   1.182   1.197   1.198
  1.200   1.206   1.213   1.219   1.227   1.234   1.238   1.246
  1.253   1.262   1.268   1.273   1.281   1.289   1.299   1.300
  1.307   1.310   1.320   1.327   1.335   1.347   1.349   1.352
  1.356   1.362   1.365   1.372   1.379   1.380   1.384   1.389
  1.393   1.400   1.418   1.423   1.425   1.429   1.435   1.441
  1.446   1.449   1.453   1.462   1.475   1.476   1.481   1.487
  1.489   1.501   1.503   1.510   1.510   1.517   1.523   1.536
  1.548   1.552   1.565   1.567   1.573   1.583   1.587   1.590
  1.607   1.615   1.618   1.625   1.629   1.639   1.643   1.648
  1.652   1.660   1.661   1.671   1.679   1.689   1.694   1.704
  1.706   1.709   1.719   1.725   1.729   1.735   1.743   1.747
  1.763   1.766   1.782   1.785   1.789   1.802   1.806   1.810
  1.812   1.824   1.838   1.859   1.868   1.884   1.887   1.891
  1.894   1.897   1.916   1.917   1.932   1.935   1.939   1.946
  1.968   1.975   1.977   1.979   1.986   1.992   1.995   2.005
  2.011   2.023   2.030   2.037   2.042   2.048   2.055   2.074
  2.077   2.088   2.105   2.108   2.112   2.119   2.127   2.131
  2.140   2.154   2.157   2.173   2.178   2.184   2.193   2.202
  2.204   2.212   2.219   2.226   2.230   2.242   2.245   2.256
  2.264   2.278   2.286   2.292   2.296   2.297   2.309   2.313
  2.319   2.327   2.334   2.346   2.348   2.362   2.368   2.370
  2.375   2.384   2.389   2.399   2.406   2.409   2.422   2.432
  2.437   2.442   2.447   2.459   2.460   2.466   2.471   2.479
  2.483   2.498   2.502   2.512   2.522   2.524   2.527   2.531
  2.536   2.539   2.545   2.546   2.560   2.563   2.567   2.590
  2.606   2.612   2.630   2.634   2.639   2.644   2.656   2.660
  2.665   2.669   2.678   2.684   2.695   2.699   2.718   2.724
  2.732   2.737   2.749   2.757   2.760   2.764   2.774   2.778
  2.786   2.790   2.791   2.802   2.809   2.813   2.820   2.828
  2.835   2.838   2.845   2.857   2.869   2.875   2.878   2.885
  2.890   2.895   2.896   2.907   2.910   2.917   2.924   2.934
  2.936   2.944   2.949   2.953   2.959   2.963   2.975   2.977
  2.982   2.989   3.002   3.004   3.006   3.011   3.019   3.024
  3.027   3.033   3.037   3.045   3.052   3.057   3.059   3.062
  3.063   3.068   3.070   3.075   3.080   3.084   3.085   3.088
  3.092   3.094   3.101   3.108   3.121   3.123   3.126   3.134
  3.140   3.144   3.152   3.155   3.161   3.164   3.168   3.170
  3.179   3.183   3.184   3.189   3.196   3.197   3.200   3.208
  3.212   3.214   3.222   3.223   3.229   3.234   3.238   3.242
  3.245   3.251   3.254   3.257   3.266   3.267   3.269   3.275
  3.284   3.286   3.287   3.294   3.294   3.301   3.302   3.307
  3.308   3.319   3.320   3.326   3.329   3.332   3.336   3.344
  3.353   3.357   3.362   3.374   3.377   3.388   3.390   3.398
  3.400   3.405   3.407   3.413   3.419   3.420   3.430   3.436
  3.439   3.450   3.455   3.458   3.468   3.470   3.476   3.481
  3.483   3.491   3.496   3.504   3.508   3.514   3.518   3.522
  3.525   3.537   3.540   3.548   3.565   3.567   3.577   3.582
  3.586   3.600   3.607   3.616   3.623   3.628   3.631   3.639
  3.656   3.664   3.671   3.680   3.686   3.690   3.695   3.699
  3.709   3.713   3.723   3.735   3.742   3.745   3.748   3.758
  3.764   3.776   3.777   3.785   3.795   3.805   3.808   3.812
  3.812   3.823   3.832   3.840   3.848   3.859   3.876   3.882
  3.888   3.899   3.906   3.909   3.917   3.921   3.929   3.933
  3.936   3.938   3.943   3.949   3.955   3.962   3.974   3.983
  3.992   3.995   4.002   4.006   4.017   4.020   4.026   4.033
  4.048   4.066   4.067   4.072   4.079   4.086   4.092   4.096
  4.101   4.112   4.118   4.137   4.144   4.149   4.160   4.172
  4.173   4.184   4.188   4.200   4.204   4.205   4.210   4.228
  4.232   4.240   4.242   4.248   4.257   4.263   4.271   4.282
  4.288   4.290   4.302   4.307   4.320   4.324   4.326   4.333
  4.340   4.350   4.360   4.366   4.374   4.377   4.386   4.396
  4.406   4.412   4.426   4.434   4.437   4.442   4.444   4.451
  4.464   4.487   4.494   4.500   4.512   4.524   4.527   4.536
  4.543   4.551   4.556   4.564   4.586   4.590   4.605   4.614
  4.622   4.633   4.642   4.652   4.662   4.680   4.685   4.693
  4.710   4.718   4.725   4.745   4.756   4.764   4.772   4.793
  4.798   4.807   4.810   4.814   4.823   4.834   4.845   4.864
  4.875   4.876   4.889   4.896   4.899   4.905   4.918   4.936
  4.937   4.948   4.949   4.968   4.973   4.981   4.984   4.989
  4.992   5.004   5.008   5.016   5.024   5.038   5.046   5.052
  5.070   5.083   5.091   5.099   5.110   5.114   5.116   5.119
  5.131   5.143   5.152   5.157   5.166   5.179   5.181   5.188
  5.204   5.212   5.239   5.265   5.277   5.301   5.304   5.316
  5.325   5.343   5.351   5.375   5.379   5.402   5.420   5.428
  5.452   5.465   5.475   5.491   5.495   5.497   5.506   5.536
  5.560   5.562   5.577   5.590   5.598   5.610   5.615   5.652
  5.675   5.702   5.719   5.722   5.741   5.753   5.760   5.792
  5.800   5.822   5.838   5.857   5.864   5.889   5.908   5.919
  5.947   5.963   6.003   6.018   6.056   6.084   6.131   6.180
  6.200   6.239   6.250   6.269   6.307   6.353   6.384   6.403
  6.446   6.490   6.604   6.874   6.986   7.078   8.076   8.932
  9.764  10.048  10.627  11.137  11.306  11.558  12.000  12.091
 12.394  12.641  12.795  12.850  12.883  12.937  13.120  13.198
 13.328  13.419  13.461  14.015  14.235  14.665  15.063  15.093
 --------------------------------------------------------------
 
          Ground-State Mulliken Net Atomic Charges

     Atom                 Charge (a.u.)
  ----------------------------------------
      1 C                    -0.092342
      2 C                    -0.129404
      3 C                    -0.080398
      4 C                    -0.118122
      5 N                    -0.145271
      6 C                     0.082648
      7 C                     0.100039
      8 N                    -0.177772
      9 C                    -0.016998
     10 C                    -0.080757
     11 N                    -0.217227
     12 C                     0.052236
     13 C                     0.057370
     14 S                     0.405879
     15 N                    -0.305828
     16 C                    -0.071726
     17 S                     0.220631
     18 C                     0.045048
     19 C                    -0.104756
     20 N                    -0.169714
     21 C                     0.045696
     22 C                    -0.022370
     23 C                    -0.050089
     24 N                    -0.129833
     25 C                    -0.160287
     26 S                     0.136090
     27 C                    -0.049229
     28 C                    -0.150225
     29 C                    -0.183840
     30 H                     0.133090
     31 H                     0.120429
     32 H                     0.119687
     33 H                     0.138021
     34 H                     0.138579
     35 H                     0.128355
     36 H                     0.137321
     37 H                     0.131973
     38 H                     0.128786
     39 H                     0.134310
  ----------------------------------------
  Sum of atomic charges =     0.000000

 -----------------------------------------------------------------
                    Cartesian Multipole Moments
 -----------------------------------------------------------------
    Charge (ESU x 10^10)
                 0.0000
    Dipole Moment (Debye)
         X       0.1972      Y       0.9618      Z       0.9456
       Tot       1.3631
    Quadrupole Moments (Debye-Ang)
        XX    -155.5780     XY       7.0838     YY    -167.3658
        XZ       0.0632     YZ      -0.0777     ZZ    -182.7840
    Octopole Moments (Debye-Ang^2)
       XXX     140.8531    XXY      -4.8018    XYY     -23.1187
       YYY      46.0694    XXZ     -10.2908    XYZ      12.0013
       YYZ      13.8195    XZZ     -21.1545    YZZ     -13.1769
       ZZZ      -0.2059
    Hexadecapole Moments (Debye-Ang^3)
      XXXX  -16496.8897   XXXY     770.4295   XXYY   -3629.6733
      XYYY    -248.3981   YYYY   -3222.2073   XXXZ      18.0495
      XXYZ      37.9790   XYYZ     -21.9109   YYYZ      25.7923
      XXZZ   -3375.9422   XYZZ       5.7547   YYZZ    -697.3621
      XZZZ      -3.5579   YZZZ      -6.4976   ZZZZ    -497.1493
 -----------------------------------------------------------------
 Calculating analytic gradient of the SCF energy
 K construction time:  CPU 2900.85 s  wall 183.87 s
 Gradient of SCF Energy
            1           2           3           4           5           6
    1  -0.0000153   0.0002211  -0.0000898  -0.0002570  -0.0000394   0.0002019
    2  -0.0000881   0.0001419   0.0000799   0.0003087   0.0001251  -0.0003167
    3  -0.0001097   0.0001277   0.0000412  -0.0006077   0.0001397   0.0010897
            7           8           9          10          11          12
    1  -0.0001636  -0.0002016   0.0000832  -0.0001758  -0.0001363   0.0002457
    2  -0.0001689   0.0000749   0.0001216  -0.0002711  -0.0001101   0.0002644
    3  -0.0011195   0.0004592   0.0002690   0.0003001  -0.0001460   0.0003331
           13          14          15          16          17          18
    1   0.0000407   0.0000794   0.0005630  -0.0005538  -0.0007298  -0.0003010
    2   0.0001489  -0.0003836  -0.0002368   0.0001887   0.0002733   0.0002519
    3  -0.0002821   0.0000250  -0.0000858  -0.0000787  -0.0015636   0.0005091
           19          20          21          22          23          24
    1   0.0016964   0.0008345   0.0001220  -0.0009403  -0.0002169  -0.0001429
    2   0.0017578  -0.0006793  -0.0001169  -0.0021125   0.0003573  -0.0006335
    3   0.0013120  -0.0003124   0.0004414  -0.0001530  -0.0000448  -0.0002044
           25          26          27          28          29          30
    1  -0.0006428   0.0002920   0.0002639  -0.0001531   0.0004100  -0.0000013
    2   0.0014402  -0.0005753   0.0000115  -0.0001921   0.0002501  -0.0000604
    3  -0.0009982   0.0001411  -0.0000585   0.0002612   0.0001612   0.0000346
           31          32          33          34          35          36
    1  -0.0000546   0.0000704  -0.0000375  -0.0003742   0.0000074   0.0001920
    2  -0.0001141  -0.0000480  -0.0000332   0.0003629  -0.0000404   0.0000286
    3  -0.0000821  -0.0000137  -0.0000357  -0.0001701   0.0000326   0.0004527
           37          38          39
    1   0.0000321  -0.0000825  -0.0000464
    2  -0.0000667  -0.0000052   0.0000653
    3   0.0000336  -0.0000928  -0.0000054
 Max gradient component =       2.113E-03
 RMS gradient           =       4.960E-04
 Gradient time:  CPU 3357.54 s  wall 214.85 s
 Geometry Optimization Parameters
   NAtoms,    NIC,     NZ,  NCons,   NDum,   NFix, NCnnct, MaxDiis
       39     293       0       3       0       0       0       0

 Cartesian Hessian Update
 Hessian Updated using BFGS Update


** CONSTRAINED OPTIMIZATION IN DELOCALIZED INTERNAL COORDINATES **
   Searching for a Minimum

   Optimization Cycle:   3

                       Coordinates (Angstroms)
     ATOM                X               Y               Z
      1  C         7.6937098438    0.4298464516   -0.3306153326
      2  C         7.0082400275    1.5713664122    0.0520325305
      3  C         6.9609111309   -0.7133308753   -0.6062240196
      4  C         5.6311071419    1.5226104225    0.1457006110
      5  N         5.6394433950   -0.7769111515   -0.5131369078
      6  C         4.9864744247    0.3204597084   -0.1386270190
      7  C         3.5053813581    0.2509426801   -0.0599099185
      8  N         2.8490345164    1.3732903465   -0.1590100308
      9  C         2.7765231335   -0.9674825652    0.1337943245
     10  C         1.4944298706    1.4183887151   -0.1176247931
     11  N         3.2597655184   -2.1972830649    0.3207521903
     12  C         1.3455620752   -0.9149282873    0.1727091516
     13  C         0.6647695264    0.3331999959    0.0333776619
     14  S         1.9945071572   -3.1637871735    0.5021709574
     15  N         0.7844822887   -2.1078318975    0.3675169494
     16  C        -0.7876522053    0.4583102020    0.0670684068
     17  S        -1.8374037037   -0.8973637077   -0.0198648451
     18  C        -1.5608924515    1.6162557935    0.1603844349
     19  C        -3.2700494154    0.0136239960    0.0726904022
     20  N        -1.0888405712    2.8918632603    0.2542259714
     21  C        -2.9676563163    1.3586242720    0.1611367004
     22  C        -4.5831870662   -0.6267336387    0.0481129152
     23  C        -1.9898900240    3.8212693641    0.3383526395
     24  N        -3.8882299973    2.3581412259    0.2526917859
     25  C        -5.1984257085   -1.3203179634    1.0468613825
     26  S        -5.5935995019   -0.5451818290   -1.3497146421
     27  C        -3.3957950837    3.5541043809    0.3369620374
[...]
     39  H        -7.7256573138   -1.6627468305   -1.1424011584
   Point Group: c1    Number of degrees of freedom:   111


   Energy is  -2291.146670136

              Constraints and their Current Values
                                        Value     Constraint
   Dihedral:        4   6   7   8       21.822       21.822
   Dihedral:       10  13  16  17      169.064      169.064
   Dihedral:       17  19  22  25       75.000       75.000
 Hessian Updated using BFGS Update

102 Hessian modes will be used to form the next step
  Hessian Eigenvalues:
     0.009994    0.029505    0.043505    0.045000    0.045000    0.045000
     0.045000    0.045000    0.045000    0.045000    0.045000    0.045001
     0.045001    0.045001    0.045001    0.045002    0.045002    0.045003
     0.045003    0.045004    0.045006    0.045008    0.045021    0.045029
     0.045175    0.045209    0.045528    0.047066    0.155070    0.158930
     0.159947    0.159999    0.160000    0.160007    0.160090    0.160208
     0.160418    0.218714    0.219976    0.224254    0.224361    0.227633
     0.233421    0.241605    0.244266    0.244573    0.247334    0.249585
     0.249729    0.249951    0.249969    0.249979    0.249990    0.249991
     0.250980    0.251391    0.295181    0.301456    0.321611    0.331992
     0.335445    0.342347    0.354133    0.354475    0.355772    0.357118
     0.359037    0.360695    0.361007    0.361442    0.364176    0.364730
     0.369258    0.369876    0.374497    0.379171    0.396982    0.404114
     0.405693    0.418701    0.432347    0.433066    0.455396    0.460889
     0.471224    0.473845    0.481556    0.482142    0.485222    0.486224
     0.505437    0.507256    0.521818    0.527135    0.557171    0.572570
     0.585485    0.589775    0.639236    0.650050    0.657517    0.698242

 Minimum Search - Taking Simple RFO Step
 Searching for Lamda that Minimizes Along All modes
 Value Taken    Lamda =   0.00000000
 Step Taken.  Stepsize is  0.003221

                             Maximum     Tolerance    Cnvgd?
         Gradient           0.000080      0.000300     YES
         Displacement       0.001241      0.001200      NO
         Energy change     -0.000001      0.000001     YES

 Final energy is   -2291.14667013646     


 ******************************
 **  OPTIMIZATION CONVERGED  **
 ******************************

                       Coordinates (Angstroms)
     ATOM                X               Y               Z
      1  C         7.6925237569    0.4109257512   -0.3762926056
      2  C         7.0220696502    1.5535618545    0.0285097468
      3  C         6.9466712327   -0.7243903225   -0.6499891786
      4  C         5.6466192242    1.5138872136    0.1456956641
      5  N         5.6265131933   -0.7792274500   -0.5347007599
      6  C         4.9882188425    0.3192365460   -0.1377109562
      7  C         3.5081397977    0.2590791525   -0.0391856097
      8  N         2.8561412454    1.3852239472   -0.1211591664
      9  C         2.7761574911   -0.9565435652    0.1601461061
     10  C         1.5016386199    1.4351448697   -0.0688246997
     11  N         3.2569874646   -2.1871264017    0.3473473071
     12  C         1.3462645803   -0.8984277125    0.2142582929
     13  C         0.6688315117    0.3519852041    0.0826533675
     14  S         1.9896393997   -3.1476484799    0.5457516448
     15  N         0.7820346089   -2.0878590938    0.4195860041
     16  C        -0.7838412912    0.4727257396    0.1110924446
     17  S        -1.8243224528   -0.8909128153    0.0246960976
     18  C        -1.5664862435    1.6261271027    0.1808882359
     19  C        -3.2655449536    0.0107457828    0.0911442210
     20  N        -1.1050554493    2.9064944034    0.2687031576
     21  C        -2.9721979038    1.3594789019    0.1663884986
     22  C        -4.5705677317   -0.6387522541    0.0413969030
     23  C        -2.0124352564    3.8307194705    0.3305425730
     24  N        -3.8996267863    2.3550858578    0.2361940599
     25  C        -5.1957075772   -1.3378648634    1.0315567439
     26  S        -5.5746964315   -0.5368127555   -1.3603843985
     27  C        -3.4167054752    3.5549915535    0.3135672029
     28  C        -6.4806039572   -1.8039203818    0.6573298566
     29  C        -6.8156678497   -1.4443006539   -0.6097523176
     30  H         8.7678424192    0.3966428367   -0.4837660870
     31  H         7.5643653630    2.4630434550    0.2486771566
     32  H         7.4314577188   -1.6343983717   -0.9842036678
     33  H         5.0730992214    2.3772106715    0.4459863557
     34  H         1.0756422796    2.4224188074   -0.1527007259
     35  H        -1.6741150776    4.8588530190    0.4010498319
     36  H        -4.7447475689   -1.5011453901    1.9988635485
     37  H        -4.1195723852    4.3788287941    0.3725234966
     38  H        -7.1253023866   -2.3797733227    1.3031979288
     39  H        -7.7256573138   -1.6627468305   -1.1424011584

Z-matrix Print:
$molecule
0 1
S 
C  1 1.701331
C  2 1.382315 1 109.843582
N  3 1.362435 2 124.843303 1 179.847507 0
C  4 1.295752 3 115.217891 2 -179.356031 0
H  5 1.084530 4 117.719574 3 179.912666 0
C  3 1.430852 2 113.008409 1 0.560829 0
N  7 1.363807 3 120.530883 2 179.199585 0
C  8 1.296670 7 115.815065 3 0.251577 0
H  9 1.084661 8 117.416280 7 -179.998088 0
C  7 1.395614 3 113.354278 2 -0.230399 0
C  11 1.457959 7 128.915457 3 -179.005750 0
C  12 1.374681 11 122.718940 7 9.585440 0
H  13 1.078526 12 119.376926 11 -1.176534 0
N  13 1.356432 12 125.465285 11 179.049130 0
C  15 1.303850 13 121.918108 12 -0.559483 0
C  12 1.428204 11 122.909466 7 -170.186931 0
N  17 1.332390 12 126.506424 11 2.352016 0
C  17 1.432096 12 120.374024 11 -179.137111 0
N  19 1.334382 17 113.073272 12 -177.701839 0
C  2 1.458563 1 121.373291 3 -178.852212 0
C  21 1.363809 2 127.852528 1 -75.000047 0
H  22 1.079680 21 122.447681 2 1.280822 0
C  22 1.417114 21 113.108429 2 -178.185889 0
H  24 1.079068 22 123.997829 21 -179.669702 0
C  24 1.359077 22 112.501929 21 0.382545 0
H  26 1.076807 24 128.012823 22 179.913193 0
C  16 1.484574 15 117.346537 13 -178.695646 0
N  28 1.331031 16 117.674604 15 156.336833 0
C  29 1.326317 28 117.977608 16 -178.707564 0
H  30 1.083897 29 115.930206 28 179.455166 0
C  30 1.385694 29 123.535846 28 -0.181696 0
H  32 1.080770 30 120.335857 29 -179.735767 0
C  32 1.385276 30 118.230221 29 0.575235 0
H  34 1.081534 32 120.692848 30 179.758482 0
C  34 1.381003 32 118.890629 30 -0.178009 0
H  36 1.079086 34 122.004030 32 179.292500 0
S  20 1.602541 19 106.567791 17 -0.778980 0
S  26 1.710846 24 111.751292 22 -0.004915 0
$end

 
 --------------------------------------------------------------
 
                    Orbital Energies (a.u.)
 --------------------------------------------------------------
 
 Alpha MOs
 -- Occupied --
-89.147 -89.099 -89.077 -14.483 -14.480 -14.461 -14.459 -14.445
-14.434 -10.355 -10.353 -10.351 -10.344 -10.343 -10.342 -10.340
-10.339 -10.337 -10.336 -10.332 -10.331 -10.327 -10.324 -10.317
-10.310 -10.301 -10.299 -10.296 -10.294  -8.157  -8.113  -8.092
 -6.107  -6.101  -6.101  -6.062  -6.058  -6.057  -6.041  -6.038
 -6.035  -1.144  -1.100  -1.069  -1.049  -1.028  -1.013  -1.003
 -0.986  -0.925  -0.912  -0.896  -0.878  -0.867  -0.852  -0.838
 -0.811  -0.777  -0.771  -0.749  -0.738  -0.730  -0.716  -0.710
 -0.670  -0.658  -0.645  -0.629  -0.628  -0.620  -0.608  -0.604
 -0.586  -0.576  -0.568  -0.561  -0.559  -0.546  -0.543  -0.527
 -0.512  -0.507  -0.499  -0.498  -0.493  -0.492  -0.484  -0.481
 -0.475  -0.468  -0.463  -0.461  -0.448  -0.438  -0.428  -0.425
 -0.420  -0.411  -0.394  -0.376  -0.371  -0.360  -0.357  -0.342
 -0.339  -0.337  -0.334  -0.331  -0.319  -0.277
 -- Virtual --
 -0.053  -0.021   0.025   0.041   0.041   0.051   0.065   0.071
  0.083   0.101   0.103   0.115   0.123   0.124   0.130   0.132
  0.149   0.154   0.158   0.164   0.175   0.175   0.182   0.185
  0.192   0.205   0.209   0.216   0.223   0.229   0.239   0.246
  0.257   0.261   0.271   0.275   0.276   0.284   0.287   0.291
  0.298   0.305   0.307   0.311   0.318   0.322   0.325   0.328
  0.334   0.340   0.341   0.345   0.347   0.347   0.352   0.355
  0.361   0.364   0.372   0.377   0.379   0.382   0.385   0.387
  0.388   0.393   0.394   0.398   0.400   0.403   0.408   0.412
  0.415   0.418   0.420   0.429   0.431   0.436   0.436   0.439
  0.444   0.447   0.448   0.449   0.453   0.458   0.459   0.462
  0.466   0.469   0.474   0.477   0.483   0.485   0.488   0.493
  0.495   0.503   0.507   0.510   0.514   0.515   0.522   0.525
  0.527   0.531   0.533   0.535   0.538   0.543   0.546   0.549
  0.555   0.563   0.572   0.576   0.580   0.583   0.584   0.594
  0.598   0.605   0.608   0.609   0.616   0.621   0.630   0.637
  0.642   0.646   0.650   0.655   0.655   0.664   0.665   0.672
  0.674   0.677   0.689   0.696   0.700   0.703   0.710   0.715
  0.718   0.726   0.729   0.736   0.737   0.741   0.746   0.755
  0.758   0.762   0.766   0.769   0.775   0.781   0.784   0.788
  0.791   0.794   0.799   0.805   0.807   0.815   0.821   0.825
  0.829   0.832   0.833   0.844   0.845   0.849   0.851   0.855
  0.862   0.864   0.869   0.875   0.881   0.890   0.894   0.898
  0.909   0.912   0.914   0.918   0.921   0.926   0.931   0.939
  0.942   0.949   0.951   0.952   0.959   0.963   0.970   0.974
  0.980   0.982   0.983   0.991   0.996   1.003   1.010   1.014
  1.023   1.027   1.033   1.034   1.046   1.053   1.057   1.058
  1.063   1.071   1.078   1.080   1.085   1.093   1.098   1.100
  1.104   1.105   1.108   1.120   1.124   1.131   1.140   1.143
  1.150   1.156   1.162   1.170   1.174   1.182   1.197   1.199
  1.200   1.207   1.213   1.220   1.226   1.233   1.238   1.245
  1.253   1.262   1.268   1.275   1.281   1.289   1.299   1.300
  1.308   1.311   1.320   1.326   1.336   1.346   1.350   1.352
  1.356   1.362   1.366   1.373   1.379   1.380   1.385   1.389
  1.393   1.400   1.418   1.424   1.426   1.430   1.435   1.442
  1.446   1.449   1.453   1.462   1.474   1.476   1.481   1.485
  1.489   1.501   1.504   1.508   1.510   1.517   1.524   1.537
  1.548   1.553   1.565   1.567   1.572   1.582   1.587   1.590
  1.606   1.618   1.619   1.624   1.629   1.639   1.643   1.648
  1.652   1.659   1.661   1.671   1.679   1.689   1.694   1.703
  1.705   1.708   1.719   1.725   1.730   1.735   1.743   1.747
  1.763   1.766   1.781   1.786   1.789   1.803   1.807   1.811
  1.812   1.825   1.839   1.859   1.869   1.885   1.887   1.890
  1.894   1.896   1.916   1.917   1.932   1.935   1.941   1.946
  1.968   1.976   1.977   1.979   1.986   1.992   1.993   2.007
  2.011   2.023   2.030   2.038   2.043   2.048   2.054   2.074
  2.077   2.088   2.104   2.108   2.112   2.120   2.128   2.131
  2.140   2.154   2.156   2.172   2.178   2.184   2.194   2.202
  2.204   2.212   2.220   2.226   2.231   2.244   2.246   2.256
  2.263   2.278   2.282   2.292   2.296   2.297   2.310   2.313
  2.319   2.327   2.334   2.346   2.348   2.362   2.367   2.370
  2.374   2.384   2.388   2.399   2.406   2.410   2.422   2.433
  2.437   2.442   2.447   2.459   2.461   2.466   2.471   2.480
  2.483   2.499   2.503   2.511   2.522   2.524   2.528   2.531
  2.536   2.539   2.545   2.548   2.560   2.563   2.567   2.590
  2.605   2.612   2.629   2.633   2.639   2.644   2.656   2.660
  2.665   2.669   2.678   2.684   2.695   2.699   2.718   2.723
  2.732   2.738   2.749   2.757   2.760   2.763   2.774   2.778
  2.787   2.791   2.791   2.802   2.809   2.812   2.820   2.829
  2.835   2.837   2.845   2.857   2.869   2.876   2.878   2.886
  2.890   2.895   2.896   2.907   2.910   2.917   2.924   2.934
  2.936   2.944   2.949   2.952   2.959   2.964   2.974   2.977
  2.982   2.987   3.001   3.004   3.006   3.011   3.019   3.023
  3.027   3.033   3.036   3.045   3.052   3.056   3.059   3.061
  3.063   3.067   3.070   3.076   3.080   3.083   3.086   3.089
  3.091   3.094   3.101   3.108   3.121   3.123   3.126   3.134
  3.139   3.144   3.152   3.154   3.160   3.164   3.168   3.170
  3.179   3.182   3.184   3.189   3.195   3.197   3.201   3.208
  3.212   3.214   3.221   3.223   3.228   3.234   3.238   3.242
  3.245   3.251   3.254   3.257   3.266   3.268   3.270   3.275
  3.285   3.286   3.289   3.294   3.294   3.300   3.302   3.307
  3.309   3.319   3.320   3.326   3.329   3.332   3.336   3.344
  3.353   3.357   3.361   3.373   3.377   3.388   3.390   3.397
  3.400   3.403   3.408   3.411   3.419   3.421   3.430   3.436
  3.439   3.448   3.455   3.458   3.468   3.470   3.475   3.481
  3.483   3.491   3.496   3.504   3.508   3.514   3.518   3.523
  3.526   3.537   3.543   3.549   3.564   3.567   3.577   3.583
  3.586   3.600   3.606   3.616   3.623   3.628   3.632   3.638
  3.655   3.664   3.672   3.679   3.686   3.690   3.695   3.699
  3.709   3.713   3.723   3.735   3.742   3.746   3.748   3.758
  3.764   3.776   3.777   3.785   3.794   3.804   3.807   3.810
  3.812   3.823   3.832   3.840   3.848   3.859   3.876   3.881
  3.888   3.898   3.906   3.910   3.917   3.921   3.930   3.933
  3.936   3.938   3.943   3.949   3.955   3.962   3.974   3.983
  3.992   3.995   4.002   4.006   4.016   4.019   4.026   4.032
  4.048   4.064   4.068   4.073   4.079   4.086   4.092   4.095
  4.102   4.113   4.118   4.136   4.144   4.149   4.160   4.172
  4.174   4.185   4.188   4.201   4.203   4.204   4.209   4.227
  4.233   4.240   4.244   4.248   4.256   4.263   4.270   4.283
  4.287   4.289   4.302   4.307   4.320   4.324   4.326   4.333
  4.341   4.350   4.360   4.366   4.373   4.377   4.386   4.395
  4.406   4.412   4.427   4.434   4.437   4.442   4.444   4.451
  4.464   4.487   4.494   4.499   4.512   4.525   4.528   4.536
  4.542   4.552   4.555   4.565   4.587   4.590   4.606   4.615
  4.621   4.633   4.641   4.652   4.662   4.681   4.685   4.693
  4.708   4.719   4.725   4.745   4.756   4.764   4.773   4.792
  4.798   4.807   4.810   4.813   4.823   4.835   4.845   4.865
  4.875   4.876   4.889   4.895   4.899   4.905   4.918   4.935
  4.937   4.948   4.949   4.968   4.974   4.980   4.983   4.989
  4.992   5.005   5.008   5.016   5.023   5.038   5.046   5.051
  5.070   5.082   5.091   5.101   5.110   5.115   5.117   5.119
  5.131   5.143   5.151   5.157   5.167   5.179   5.180   5.189
  5.205   5.212   5.239   5.265   5.278   5.300   5.304   5.316
  5.325   5.343   5.351   5.375   5.377   5.402   5.420   5.427
  5.451   5.465   5.475   5.491   5.495   5.497   5.506   5.535
  5.560   5.562   5.578   5.589   5.599   5.610   5.616   5.652
  5.675   5.701   5.719   5.721   5.742   5.753   5.759   5.791
  5.800   5.821   5.837   5.857   5.863   5.890   5.909   5.920
  5.947   5.963   6.002   6.018   6.056   6.083   6.131   6.180
  6.200   6.239   6.251   6.270   6.307   6.354   6.382   6.403
  6.446   6.488   6.604   6.874   6.986   7.077   8.074   8.930
  9.768  10.054  10.626  11.140  11.304  11.563  12.003  12.101
 12.395  12.640  12.794  12.854  12.879  12.934  13.115  13.195
 13.327  13.418  13.452  14.011  14.244  14.663  15.064  15.097
 --------------------------------------------------------------
 
          Ground-State Mulliken Net Atomic Charges

     Atom                 Charge (a.u.)
  ----------------------------------------
      1 C                    -0.092340
      2 C                    -0.129198
      3 C                    -0.080340
      4 C                    -0.118263
      5 N                    -0.145794
      6 C                     0.082900
      7 C                     0.100329
      8 N                    -0.177593
      9 C                    -0.017894
     10 C                    -0.081037
     11 N                    -0.217149
     12 C                     0.053200
     13 C                     0.058266
     14 S                     0.405358
     15 N                    -0.305896
     16 C                    -0.071478
     17 S                     0.219593
     18 C                     0.045440
     19 C                    -0.100234
     20 N                    -0.169609
     21 C                     0.044004
     22 C                    -0.025000
     23 C                    -0.049952
     24 N                    -0.130189
     25 C                    -0.160416
     26 S                     0.136171
     27 C                    -0.049296
     28 C                    -0.150625
     29 C                    -0.183146
     30 H                     0.133119
     31 H                     0.120401
     32 H                     0.119634
     33 H                     0.137822
     34 H                     0.138246
     35 H                     0.128164
     36 H                     0.137833
     37 H                     0.132022
     38 H                     0.128586
     39 H                     0.134363
  ----------------------------------------
  Sum of atomic charges =     0.000000

 -----------------------------------------------------------------
                    Cartesian Multipole Moments
 -----------------------------------------------------------------
    Charge (ESU x 10^10)
                 0.0000
    Dipole Moment (Debye)
         X       0.2111      Y       0.9354      Z       0.8949
       Tot       1.3116
    Quadrupole Moments (Debye-Ang)
        XX    -155.2465     XY       6.9186     YY    -167.4191
        XZ      -0.0346     YZ      -0.2241     ZZ    -182.7741
    Octopole Moments (Debye-Ang^2)
       XXX     141.5163    XXY      -5.0898    XYY     -24.5390
       YYY      43.9977    XXZ     -15.1540    XYZ      12.1796
       YYZ      11.7669    XZZ     -20.8318    YZZ     -13.9622
       ZZZ      -5.1762
    Hexadecapole Moments (Debye-Ang^3)
      XXXX  -16476.8086   XXXY     769.6062   XXYY   -3622.0236
      XYYY    -246.2162   YYYY   -3220.2633   XXXZ       0.2041
      XXYZ      41.6597   XYYZ     -22.1329   YYYZ      28.2695
      XXZZ   -3369.5802   XYZZ       7.0297   YYZZ    -698.7007
      XZZZ      -4.1220   YZZZ       0.2739   ZZZZ    -507.5157
 -----------------------------------------------------------------
Archival summary:
1\1\mn214\OPT\ProcedureUnspecified\BasisUnspecified\362010\afmv_a\SunJun1802:05:372017SunJun1802:05:372017\0\\#,OPT,ProcedureUnspecified,BasisUnspecified,\\0,1\S\C,1,1.70133\C,2,1.38232,1,109.844\N,3,1.36244,2,124.843,1,179.848,0\C,4,1.29575,3,115.218,2,-179.356,0\H,5,1.08453,4,117.72,3,179.913,0\C,3,1.43085,2,113.008,1,0.560829,0\N,7,1.36381,3,120.531,2,179.2,0\C,8,1.29667,7,115.815,3,0.251577,0\H,9,1.08466,8,117.416,7,-179.998,0\C,7,1.39561,3,113.354,2,-0.230399,0\C,11,1.45796,7,128.915,3,-179.006,0\C,12,1.37468,11,122.719,7,9.58544,0\H,13,1.07853,12,119.377,11,-1.17653,0\N,13,1.35643,12,125.465,11,179.049,0\C,15,1.30385,13,121.918,12,-0.559483,0\C,12,1.4282,11,122.909,7,-170.187,0\N,17,1.33239,12,126.506,11,2.35202,0\C,17,1.4321,12,120.374,11,-179.137,0\N,19,1.33438,17,113.073,12,-177.702,0\C,2,1.45856,1,121.373,3,-178.852,0\C,21,1.36381,2,127.853,1,-75,0\H,22,1.07968,21,122.448,2,1.28082,0\C,22,1.41711,21,113.108,2,-178.186,0\H,24,1.07907,22,123.998,21,-179.67,0\C,24,1.35908,22,112.502,21,0.382545,0\H,26,1.07681,24,128.013,22,179.913,0\C,16,1.48457,15,117.347,13,-178.696,0\N,28,1.33103,16,117.675,15,156.337,0\C,29,1.32632,28,117.978,16,-178.708,0\H,30,1.0839,29,115.93,28,179.455,0\C,30,1.38569,29,123.536,28,-0.181696,0\H,32,1.08077,30,120.336,29,-179.736,0\C,32,1.38528,30,118.23,29,0.575235,0\H,34,1.08153,32,120.693,30,179.758,0\C,34,1.381,32,118.891,30,-0.178009,0\H,36,1.07909,34,122.004,32,179.293,0\S,20,1.60254,19,106.568,17,-0.77898,0\S,26,1.71085,24,111.751,22,-0.00491539,0\\\@

 Total job time:  6518.96s(wall), 97281.82s(cpu) 
 Sun Jun 18 02:05:37 2017

        *************************************************************
        *                                                           *
        *  Thank you very much for using Q-Chem.  Have a nice day.  *
        *                                                           *
        *************************************************************


