
Running Job 1 of 1 C169_3/C169_240.qcin
qchem C169_3/C169_240.qcin_23167.0 /tmpu/cab_g/afmv_a/scratch_qchem/qchem23167/ 1
/tmpu/appuserlic/qchem4.4/serial-multicore/exe/qcprog.exe_s C169_3/C169_240.qcin_23167.0 /tmpu/cab_g/afmv_a/scratch_qchem/qchem23167/
Check license passed

                  Welcome to Q-Chem
     A Quantum Leap Into The Future Of Chemistry


 Q-Chem 4.4, Q-Chem, Inc., Pleasanton, CA (2016)

 Y. Shao,  Z. Gan,  E. Epifanovsky,  A. T. B. Gilbert,  M. Wormit,  
 J. Kussmann,  A. W. Lange,  A. Behn,  J. Deng,  X. Feng,  D. Ghosh,  
 M. Goldey,  P. R. Horn,  L. D. Jacobson,  I. Kaliman,  F. Rob,  
 R. Z. Khaliullin,  T. Kus,  A. Landau,  J. Liu,  E. I. Proynov,  Y. M. Rhee,  
 R. M. Richard,  M. A. Rohrdanz,  R. P. Steele,  E. J. Sundstrom,  
 H. L. Woodcock III,  P. M. Zimmerman,  D. Zuev,  B. Albrecht,  E. Alguire,  
 B. Austin,  S. A. Baeppler,  G. J. O. Beran,  Y. A. Bernard,  E. Berquist,  
 K. Brandhorst,  K. B. Bravaya,  S. T. Brown,  D. Casanova,  C.-M. Chang,  
 Y. Chen,  S. H. Chien,  K. D. Closser,  M. P. Coons,  D. L. Crittenden,  
 S. Dasgupta,  M. Diedenhofen,  R. A. DiStasio Jr.,  H. Do,  A. D. Dutoi,  
 R. G. Edgar,  P.-T. Fang,  S. Fatehi,  Q. Feng,  L. Fusti-Molnar,  
 A. Ghysels,  A. Golubeva-Zadorozhnaya,  J. Gomes,  A. Gunina,  
 M. W. D. Hanson-Heine,  P. H. P. Harbach,  A. W. Hauser,  J. E. Herr,  
 E. G. Hohenstein,  Z. C. Holden,  K. Hui,  T.-C. Jagau,  H. Ji,  B. Kaduk,  
 K. Khistyaev,  Jaehoon Kim,  Jihan Kim,  R. A. King,  P. Klunzinger,  
 K. Koh,  D. Kosenkov,  T. Kowalczyk,  C. M. Krauter,  A. Kunitsa,  
 K. U. Lao,  A. Laurent,  K. V. Lawler,  J. Lee,  D. Lefrancois,  S. Lehtola,  
 S. V. Levchenko,  C. Y. Lin,  Y.-S. Lin,  F. Liu,  E. Livshits,  
 R. C. Lochan,  A. Luenser,  P. Manohar,  S. F. Manzer,  S.-P. Mao,  Y. Mao,  
 N. Mardirossian,  A. V. Marenich,  L. A. Martinez-Martinez,  S. A. Maurer,  
 N. J. Mayhall,  J.-M. Mewes,  A. F. Morrison,  K. Nanda,  T. S. Nguyen-Beck,  
 C. M. Oana,  R. Olivares-Amaya,  D. P. O'Neill,  J. A. Parkhill,  
 T. M. Perrine,  R. Peverati,  P. A. Pieniazek,  F. Plasser,  A. Prociuk,  
 D. R. Rehn,  E. Rosta,  N. J. Russ,  N. Sergueev,  S. M. Sharada,  
 S. Sharma,  D. W. Small,  A. Sodt,  T. Stauch,  T. Stein,  D. Stuck,  
 Y.-C. Su,  A. J. W. Thom,  T. Tsuchimochi,  L. Vogt,  O. Vydrov,  T. Wang,  
 M. A. Watson,  J. Wenzel,  A. White,  C. F. Williams,  V. Vanovschi,  
 K. Yao,  S. Yeganeh,  S. R. Yost,  Z.-Q. You,  I. Y. Zhang,  X. Zhang,  
 Y. Zhao,  B. R. Brooks,  G. K. L. Chan,  D. M. Chipman,  C. J. Cramer,  
 W. A. Goddard III,  M. S. Gordon,  W. J. Hehre,  A. Klamt,  
 H. F. Schaefer III,  M. W. Schmidt,  C. D. Sherrill,  D. G. Truhlar,  
 A. Warshel,  X. Xu,  A. Aspuru-Guzik,  R. Baer,  A. T. Bell,  N. A. Besley,  
 J.-D. Chai,  A. Dreuw,  B. D. Dunietz,  T. R. Furlani,  S. R. Gwaltney,  
 C.-P. Hsu,  Y. Jung,  J. Kong,  D. S. Lambrecht,  W. Liang,  C. Ochsenfeld,  
 V. A. Rassolov,  L. V. Slipchenko,  J. E. Subotnik,  T. Van Voorhis,  
 J. M. Herbert,  A. I. Krylov,  P. M. W. Gill,  M. Head-Gordon

 Contributors to earlier versions of Q-Chem not listed above: 
 R. D. Adamson,  J. Baker,  E. F. C. Byrd,  A. K. Chakraborty,  C.-L. Cheng,  
 H. Dachsel,  R. J. Doerksen,  G. Hawkins,  A. Heyden,  S. Hirata,  
 G. Kedziora,  F. J. Keil,  C. Kelley,  P. P. Korambath,  W. Kurlancheek,  
 A. M. Lee,  M. S. Lee,  D. Liotard,  I. Lotan,  P. E. Maslen,  N. Nair,  
 D. Neuhauser,  R. Olson,  B. Peters,  J. Ritchie,  N. E. Schultz,  
 N. Shenvi,  A. C. Simmonett,  K. S. Thanthiriwatte,  Q. Wu,  W. Zhang

 Please cite Q-Chem as follows:
 Y. Shao et al., Mol. Phys. 113, 184-215 (2015)
 DOI: 10.1080/00268976.2014.952696

 Q-Chem 4.4.2 for Intel X86 Linux

 Parts of Q-Chem use Armadillo 5.200.1 (Boston Tea Smuggler).
 http://arma.sourceforge.net/

 Q-Chem begins on Sat Jun 17 01:06:27 2017  

Host: 
0

     Scratch files written to /tmpu/cab_g/afmv_a/scratch_qchem/qchem23167//
 Dec716 11556_ 22328  22283 4050   
Processing $rem in /tmpu/appuserlic/qchem4.4/serial-multicore/config/preferences.
 MEM_TOTAL  2000 
FILE_GEOM_ORG=        593

Checking the input file for inconsistencies... 	...done.

--------------------------------------------------------------
User input:
--------------------------------------------------------------
$comment
OPTIMIZATION
$end

$rem
JOBTYPE OPT
EXCHANGE omegaB97X-D
BASIS cc-pVTZ
$end

$molecule
0 1
C          0.00000        0.00000        0.00000
C         -0.65396       -1.22126       -0.00000
C          1.38563        0.00000        0.00000
C          0.09526       -2.37957        0.00866
N          2.11912       -1.10562        0.01199
C          1.48546       -2.27640        0.02149
C          2.30642       -3.51253        0.03449
N          1.74513       -4.60745       -0.39909
C          3.65824       -3.56714        0.50995
C          2.40434       -5.79109       -0.42442
N          4.38617       -2.58332        1.04242
C          4.35289       -4.81920        0.47143
C          3.70163       -5.99343       -0.01477
S          5.80914       -3.21778        1.41887
N          5.59255       -4.74484        0.95148
C          4.33823       -7.30129       -0.04468
S          6.02589       -7.51949        0.20234
C          3.75434       -8.55173       -0.24928
C          5.99762       -9.21427        0.01351
N          2.43078       -8.79033       -0.46746
C          4.69159       -9.63209       -0.21260
C          7.19111      -10.02404        0.10954
C          2.09912      -10.03238       -0.63993
N          4.30733      -10.92364       -0.39820
C          7.73290      -10.83794       -0.84709
S          8.15644      -10.05628        1.55038
C          3.03978      -11.10696       -0.60697
C          8.91108      -11.49275       -0.41534
C          9.25661      -11.17181        0.85962
H         -0.54853        0.93120        0.00000
H         -1.73532       -1.26909       -0.00410
H          1.93662        0.93286       -0.01167
H         -0.36319       -3.35650        0.00329
H          1.82722       -6.62671       -0.78554
H          1.05088      -10.24576       -0.82054
H          7.29328      -10.94485       -1.82439
H          2.69937      -12.12548       -0.75876
H          9.47138      -12.17870       -1.03225
H         10.10095      -11.52557        1.42610
$end

$opt
CONSTRAINT
tors 4 6 7 8 21.82164
tors 10 13 16 17 169.06444
tors 17 19 22 25 -120.00000
ENDCONSTRAINT
$end
--------------------------------------------------------------
 ----------------------------------------------------------------
             Standard Nuclear Orientation (Angstroms)
    I     Atom           X                Y                Z
 ----------------------------------------------------------------
    1      C       7.6919000387     0.3562443984    -0.0910359957
    2      C       6.9985660144     1.5005667804     0.2680655025
    3      C       6.9617365595    -0.7671251821    -0.4444091356
    4      C       5.6193163032     1.4730397887     0.2676666163
    5      N       5.6355548197    -0.8093938873    -0.4459171675
    6      C       4.9744208106     0.2902382487    -0.0908790829
    7      C       3.4912262095     0.2423823332    -0.0931780548
    8      N       2.8566831931     1.3779987469    -0.1912515389
    9      C       2.7321940796    -0.9686245349     0.0242713691
   10      C       1.5033562875     1.4463710280    -0.1971337379
   11      N       3.1844456542    -2.2131119153     0.1916865762
   12      C       1.3020497578    -0.8906244643     0.0075422188
   13      C       0.6475418856     0.3735878477    -0.1052974716
   14      S       1.8951666796    -3.1605349876     0.2878477050
   15      N       0.7117289441    -2.0769313052     0.1376642527
   16      C      -0.7994417370     0.5241303238    -0.0902207741
   17      S      -1.8743494071    -0.8084161527    -0.2505946645
   18      C      -1.5543821616     1.6876436712     0.0604129914
   19      C      -3.2997268146     0.1233600377    -0.1566394222
   20      N      -1.0595863736     2.9460720086     0.2273824311
   21      C      -2.9664819082     1.4600780342     0.0265175477
   22      C      -4.6169145934    -0.4658080045    -0.2418741998
   23      C      -1.9403282370     3.8912458878     0.3430222471
   24      N      -3.8615681933     2.4767238930     0.1508407147
   25      C      -5.5935935777    -0.2090331041    -1.1645200599
   26      S      -5.1538249476    -1.6640796223     0.8916132212
   27      C      -3.3493103823     3.6591240598     0.3037979587
   28      C      -6.7712064480    -0.9643396127    -0.9499686287
   29      C      -6.6812502306    -1.7880070839     0.1277123268
   30      H       8.7723710447     0.3326780856    -0.0977913650
   31      H       7.5277450952     2.4025373351     0.5474623304
   32      H       7.4642284446    -1.6794404886    -0.7429667274
   33      H       5.0306150320     2.3375993033     0.5333075830
   34      H       1.0974908488     2.4427078761    -0.2628761448
   35      H      -1.5692006666     4.9025211547     0.4716486636
   36      H      -5.4522364323     0.4940681323    -1.9679362605
   37      H      -4.0354765414     4.4927862258     0.4061969713
   38      H      -7.6490900278    -0.8887383408    -1.5733836659
   39      H      -7.4271614401    -2.4644325849     0.5085282571
 ----------------------------------------------------------------
 Molecular Point Group                 C1    NOp =  1
 Largest Abelian Subgroup              C1    NOp =  1
 Nuclear Repulsion Energy =  2925.9507984462 hartrees
 There are      110 alpha and      110 beta electrons
 Requested basis set is cc-pVTZ
 There are 356 shells and 1022 basis functions

 Total QAlloc Memory Limit   2000 MB
 Mega-Array Size        61 MB
 MEM_STATIC part        62 MB
 A cutoff of  1.0D-11 yielded  30885 shell pairs
 There are    243613 function pairs (    318031 Cartesian)
 
 -------------------------------------------------------
 OpenMP Integral Computing Module                       
 Release: version 1.0, May 2013, Q-Chem Inc. Pittsburgh 
 -------------------------------------------------------
 Integral Job Info:
 Integral job number is                      11
 Integral operator is                         1
 short-range coefficients              22203600
 long-range coefficients              100000000
 Omega coefficients                         200
 if combine SR and LR in K                    1
 Integral screening is                        0
 Integral computing path is                   2
 max size of driver memory is            800000
 size of driver memory is                776718
 size of scratch memory is             26248924
 max col of scratch BK array              10000
 max len of scratch array in speh3          662
 max len of scratch index in speh4           32
 max int batch size is                      520
 min int batch size is                       52
 fixed nKL is                                52
 max L of basis functions is                  3
 order of int derivative is                   0
 number of shells is                        356
 number of basis is                        1177
 number of cartesian basis is              1177
 number of contracted shell pairs         30885
 number of primitive shell pairs          93615
 maxK2 (contraction) of shell pair          121
 max number of K2 of shell pair               1
 max number of CS2 of shell pair           4264
 max number of PS2 of shell pair          12985
 mem total for path MDJ                  838096
 -------------------------------------------------------
 Smallest overlap matrix eigenvalue = 2.83E-05

 Scale SEOQF with 1.000000e-02/1.000000e-01/1.000000e-01

 Standard Electronic Orientation quadrupole field applied
 Nucleus-field energy     =     0.0000000632 hartrees
 Guess from superposition of atomic densities
 Warning:  Energy on first SCF cycle will be non-variational
 Long-range K will be added via erf
 Coulomb attenuation parameter = 0.2 bohr**(-1)
 A restricted hybrid HF-DFT SCF calculation will be
 performed using Pulay DIIS extrapolation
 Exchange:     0.2220 Hartree-Fock + 1.0000 wB97X-D + LR-HF
 Correlation:  1.0000 wB97X-D
 Using SG-2 standard quadrature grid
 Dispersion:   Grimme D
 SCF converges when DIIS error is below 1.0E-08
 using 16 threads for integral computing 
 using 16 threads for integral computing 
 K construction time:  CPU 70.03 s  wall 4.69 s
 -------------------------------------------------------
 OpenMP BLAS3 based DFT computing Module                
 Release: version 1.0, May 2013, Q-Chem Inc. Pittsburgh 
 -------------------------------------------------------
 ---------------------------------------
  Cycle       Energy         DIIS Error
 ---------------------------------------
    1   -2301.4306723156      1.83E-02
 K construction time:  CPU 1120.52 s  wall 74.01 s
    2   -2290.8989111454      1.33E-03
 K construction time:  CPU 1066.73 s  wall 70.38 s
    3   -2290.9362079846      1.33E-03
 K construction time:  CPU 1014.82 s  wall 67.04 s
    4   -2291.1403029300      2.14E-04
 K construction time:  CPU 941.86 s  wall 62.25 s
    5   -2291.1446705423      1.39E-04
 K construction time:  CPU 893.47 s  wall 59.11 s
    6   -2291.1469012735      4.78E-05
 K construction time:  CPU 836.05 s  wall 55.23 s
    7   -2291.1471932180      1.74E-05
 K construction time:  CPU 781.81 s  wall 51.68 s
    8   -2291.1472434299      5.57E-06
 K construction time:  CPU 749.72 s  wall 49.55 s
    9   -2291.1472542773      3.78E-06
 K construction time:  CPU 712.20 s  wall 47.12 s
   10   -2291.1472580776      1.37E-06
 K construction time:  CPU 646.42 s  wall 42.64 s
   11   -2291.1472586512      7.16E-07
 K construction time:  CPU 609.30 s  wall 40.17 s
   12   -2291.1472588145      2.17E-07
 K construction time:  CPU 534.48 s  wall 35.15 s
   13   -2291.1472588304      1.17E-07
 K construction time:  CPU 475.22 s  wall 31.34 s
   14   -2291.1472588328      3.31E-08
 K construction time:  CPU 398.58 s  wall 26.10 s
   15   -2291.1472588323      1.63E-08
 K construction time:  CPU 1114.99 s  wall 73.66 s
   16   -2291.1472588337      5.09E-09 Convergence criterion met
 ---------------------------------------
 SCF time:  CPU 15935.16 s  wall 1079.91 s
 SCF   energy in the final basis set = -2291.1472588337
 Total energy in the final basis set = -2291.1472588337
 
 --------------------------------------------------------------
 
                    Orbital Energies (a.u.)
 --------------------------------------------------------------
 
 Alpha MOs
 -- Occupied --
-89.146 -89.099 -89.079 -14.483 -14.479 -14.461 -14.460 -14.445
-14.434 -10.355 -10.353 -10.351 -10.344 -10.343 -10.342 -10.340
-10.340 -10.338 -10.336 -10.332 -10.330 -10.326 -10.324 -10.318
-10.309 -10.301 -10.298 -10.296 -10.295  -8.156  -8.114  -8.094
 -6.107  -6.101  -6.100  -6.062  -6.059  -6.058  -6.043  -6.040
 -6.037  -1.143  -1.100  -1.068  -1.049  -1.028  -1.013  -1.003
 -0.985  -0.925  -0.912  -0.896  -0.878  -0.867  -0.853  -0.838
 -0.811  -0.777  -0.771  -0.748  -0.738  -0.730  -0.716  -0.711
 -0.671  -0.656  -0.647  -0.629  -0.628  -0.620  -0.609  -0.604
 -0.586  -0.576  -0.568  -0.561  -0.558  -0.546  -0.543  -0.527
 -0.512  -0.507  -0.500  -0.498  -0.493  -0.492  -0.485  -0.482
 -0.475  -0.467  -0.463  -0.461  -0.449  -0.439  -0.428  -0.426
 -0.420  -0.410  -0.394  -0.376  -0.371  -0.360  -0.357  -0.343
 -0.340  -0.337  -0.334  -0.333  -0.320  -0.273
 -- Virtual --
 -0.053  -0.022   0.025   0.037   0.042   0.051   0.067   0.073
  0.083   0.093   0.108   0.117   0.121   0.124   0.129   0.133
  0.150   0.154   0.158   0.164   0.174   0.176   0.180   0.186
  0.193   0.202   0.209   0.216   0.225   0.230   0.241   0.247
  0.257   0.262   0.269   0.276   0.279   0.287   0.289   0.292
  0.300   0.303   0.305   0.312   0.317   0.322   0.323   0.329
  0.335   0.339   0.342   0.345   0.348   0.350   0.353   0.359
  0.361   0.369   0.371   0.373   0.380   0.384   0.386   0.388
  0.389   0.391   0.396   0.397   0.401   0.403   0.411   0.411
  0.414   0.418   0.423   0.425   0.429   0.433   0.433   0.438
  0.440   0.444   0.448   0.454   0.457   0.461   0.462   0.466
  0.469   0.474   0.475   0.478   0.482   0.483   0.489   0.493
  0.494   0.502   0.505   0.509   0.512   0.515   0.518   0.522
  0.524   0.531   0.532   0.537   0.539   0.542   0.546   0.549
  0.554   0.562   0.569   0.573   0.577   0.582   0.590   0.594
  0.596   0.603   0.607   0.611   0.618   0.625   0.631   0.638
  0.640   0.646   0.647   0.654   0.661   0.664   0.666   0.673
  0.676   0.680   0.684   0.687   0.698   0.704   0.714   0.716
  0.720   0.727   0.729   0.734   0.739   0.744   0.749   0.758
  0.761   0.762   0.766   0.773   0.777   0.781   0.783   0.789
  0.791   0.796   0.799   0.803   0.809   0.811   0.824   0.828
  0.830   0.834   0.839   0.842   0.845   0.849   0.851   0.855
  0.861   0.864   0.870   0.875   0.879   0.885   0.889   0.898
  0.905   0.912   0.917   0.921   0.926   0.929   0.931   0.937
  0.943   0.946   0.950   0.953   0.958   0.962   0.969   0.971
  0.981   0.981   0.987   0.990   0.997   1.002   1.009   1.013
  1.021   1.028   1.034   1.037   1.049   1.052   1.055   1.059
  1.066   1.071   1.077   1.082   1.083   1.090   1.095   1.097
  1.104   1.105   1.107   1.117   1.127   1.131   1.136   1.141
  1.152   1.154   1.163   1.171   1.172   1.181   1.192   1.198
  1.200   1.211   1.215   1.216   1.235   1.235   1.244   1.250
  1.259   1.262   1.271   1.275   1.285   1.289   1.292   1.299
  1.302   1.315   1.320   1.326   1.337   1.341   1.350   1.354
  1.359   1.365   1.371   1.372   1.377   1.382   1.386   1.393
  1.394   1.397   1.417   1.420   1.424   1.428   1.430   1.441
  1.445   1.450   1.450   1.460   1.470   1.480   1.480   1.482
  1.489   1.497   1.501   1.508   1.512   1.515   1.521   1.534
  1.538   1.558   1.562   1.571   1.573   1.583   1.586   1.591
  1.603   1.612   1.619   1.623   1.631   1.635   1.643   1.647
  1.656   1.661   1.664   1.669   1.687   1.694   1.696   1.699
  1.707   1.714   1.720   1.725   1.733   1.738   1.742   1.745
  1.756   1.765   1.777   1.779   1.783   1.797   1.804   1.806
  1.817   1.827   1.848   1.855   1.863   1.879   1.883   1.887
  1.894   1.898   1.909   1.915   1.926   1.935   1.942   1.949
  1.965   1.969   1.974   1.984   1.987   1.988   2.002   2.011
  2.016   2.020   2.031   2.036   2.045   2.050   2.058   2.066
  2.075   2.091   2.094   2.108   2.110   2.113   2.124   2.137
  2.143   2.151   2.158   2.169   2.177   2.184   2.196   2.201
  2.203   2.213   2.217   2.224   2.229   2.244   2.256   2.261
  2.271   2.274   2.280   2.291   2.295   2.297   2.313   2.314
  2.322   2.327   2.340   2.341   2.350   2.363   2.366   2.372
  2.375   2.384   2.390   2.399   2.402   2.407   2.415   2.431
  2.435   2.445   2.453   2.456   2.461   2.471   2.475   2.482
  2.493   2.502   2.507   2.515   2.520   2.526   2.529   2.536
  2.539   2.541   2.546   2.553   2.555   2.563   2.566   2.588
  2.608   2.613   2.628   2.632   2.637   2.644   2.657   2.664
  2.666   2.674   2.676   2.682   2.692   2.696   2.716   2.726
  2.732   2.733   2.739   2.746   2.754   2.766   2.776   2.781
  2.785   2.789   2.791   2.797   2.809   2.814   2.821   2.827
  2.830   2.838   2.847   2.855   2.869   2.876   2.878   2.879
  2.893   2.897   2.900   2.910   2.917   2.924   2.925   2.935
  2.937   2.946   2.949   2.952   2.956   2.971   2.977   2.979
  2.985   2.993   3.000   3.003   3.007   3.011   3.013   3.022
  3.023   3.033   3.038   3.042   3.051   3.058   3.059   3.061
  3.065   3.067   3.071   3.074   3.080   3.082   3.086   3.089
  3.093   3.100   3.106   3.109   3.119   3.121   3.128   3.130
  3.137   3.142   3.149   3.154   3.158   3.162   3.166   3.171
  3.175   3.177   3.184   3.188   3.197   3.199   3.200   3.206
  3.213   3.214   3.221   3.224   3.225   3.228   3.236   3.241
  3.243   3.249   3.253   3.260   3.262   3.264   3.266   3.275
  3.276   3.285   3.289   3.291   3.294   3.297   3.302   3.306
  3.312   3.316   3.319   3.328   3.331   3.342   3.343   3.346
  3.350   3.360   3.365   3.375   3.384   3.386   3.390   3.391
  3.399   3.403   3.409   3.414   3.418   3.421   3.429   3.435
  3.438   3.441   3.455   3.459   3.462   3.469   3.474   3.482
  3.487   3.489   3.495   3.496   3.506   3.513   3.517   3.524
  3.529   3.532   3.538   3.549   3.560   3.567   3.573   3.587
  3.589   3.601   3.605   3.616   3.620   3.625   3.629   3.641
  3.660   3.668   3.673   3.683   3.687   3.693   3.699   3.710
  3.714   3.717   3.727   3.733   3.739   3.745   3.747   3.763
  3.766   3.773   3.779   3.786   3.793   3.799   3.801   3.812
  3.818   3.829   3.837   3.844   3.853   3.856   3.877   3.878
  3.888   3.892   3.905   3.913   3.921   3.922   3.929   3.932
  3.934   3.936   3.945   3.951   3.958   3.961   3.973   3.977
  3.985   3.994   3.998   4.005   4.017   4.023   4.029   4.035
  4.046   4.058   4.065   4.070   4.080   4.091   4.094   4.101
  4.102   4.109   4.120   4.134   4.149   4.156   4.167   4.172
  4.181   4.185   4.196   4.202   4.206   4.209   4.219   4.222
  4.231   4.240   4.245   4.251   4.256   4.263   4.269   4.277
  4.287   4.295   4.302   4.313   4.318   4.320   4.331   4.335
  4.338   4.350   4.357   4.363   4.369   4.375   4.386   4.393
  4.405   4.413   4.422   4.431   4.439   4.441   4.444   4.449
  4.468   4.485   4.496   4.498   4.519   4.524   4.529   4.537
  4.549   4.554   4.567   4.569   4.581   4.592   4.594   4.609
  4.626   4.635   4.640   4.649   4.660   4.669   4.687   4.692
  4.710   4.717   4.725   4.738   4.758   4.762   4.778   4.794
  4.798   4.804   4.812   4.816   4.829   4.838   4.847   4.866
  4.874   4.878   4.886   4.894   4.901   4.915   4.919   4.935
  4.938   4.950   4.955   4.968   4.973   4.981   4.986   4.990
  4.991   5.004   5.008   5.013   5.026   5.040   5.046   5.053
  5.069   5.080   5.094   5.100   5.108   5.115   5.117   5.124
  5.134   5.138   5.149   5.157   5.167   5.176   5.184   5.192
  5.210   5.214   5.241   5.257   5.267   5.306   5.309   5.312
  5.323   5.342   5.350   5.374   5.381   5.401   5.418   5.428
  5.451   5.465   5.477   5.491   5.495   5.500   5.518   5.548
  5.556   5.565   5.576   5.587   5.598   5.608   5.614   5.649
  5.674   5.694   5.721   5.721   5.747   5.752   5.758   5.792
  5.796   5.823   5.839   5.857   5.875   5.887   5.909   5.920
  5.944   5.963   6.008   6.023   6.062   6.087   6.133   6.181
  6.200   6.239   6.251   6.271   6.306   6.355   6.383   6.408
  6.445   6.491   6.610   6.873   6.990   7.079   8.080   8.942
  9.803  10.094  10.665  11.140  11.323  11.622  12.011  12.111
 12.402  12.644  12.787  12.850  12.875  13.012  13.060  13.186
 13.325  13.422  13.443  14.044  14.233  14.658  15.064  15.091
 --------------------------------------------------------------
 
          Ground-State Mulliken Net Atomic Charges

     Atom                 Charge (a.u.)
  ----------------------------------------
      1 C                    -0.092626
      2 C                    -0.129272
      3 C                    -0.079903
      4 C                    -0.117452
      5 N                    -0.145101
      6 C                     0.081908
      7 C                     0.099510
      8 N                    -0.177678
      9 C                    -0.016526
     10 C                    -0.081460
     11 N                    -0.217798
     12 C                     0.052082
     13 C                     0.057079
     14 S                     0.405794
     15 N                    -0.305456
     16 C                    -0.068403
     17 S                     0.211437
     18 C                     0.047225
     19 C                    -0.087765
     20 N                    -0.170005
     21 C                     0.044187
     22 C                    -0.029219
     23 C                    -0.048952
     24 N                    -0.133839
     25 C                    -0.141650
     26 S                     0.119757
     27 C                    -0.050430
     28 C                    -0.148350
     29 C                    -0.183818
     30 H                     0.133048
     31 H                     0.119931
     32 H                     0.119938
     33 H                     0.138190
     34 H                     0.138124
     35 H                     0.127995
     36 H                     0.134084
     37 H                     0.131539
     38 H                     0.129394
     39 H                     0.134483
  ----------------------------------------
  Sum of atomic charges =     0.000000

 -----------------------------------------------------------------
                    Cartesian Multipole Moments
 -----------------------------------------------------------------
    Charge (ESU x 10^10)
                 0.0000
    Dipole Moment (Debye)
         X      -0.0722      Y       1.3157      Z       0.1709
       Tot       1.3288
    Quadrupole Moments (Debye-Ang)
        XX    -153.6896     XY       4.9042     YY    -167.0137
        XZ       5.9875     YZ       0.3155     ZZ    -183.7311
    Octopole Moments (Debye-Ang^2)
       XXX     126.7395    XXY      -0.0401    XYY     -27.8728
       YYY      40.7919    XXZ     -13.5893    XYZ      17.3752
       YYZ      18.2223    XZZ     -16.4236    YZZ      -6.0055
       ZZZ      -0.2918
    Hexadecapole Moments (Debye-Ang^3)
      XXXX  -16203.1108   XXXY     690.5683   XXYY   -3607.5599
      XYYY    -205.6256   YYYY   -3336.6610   XXXZ     204.0622
      XXYZ      10.2486   XYYZ     -35.3040   YYYZ      25.1902
      XXZZ   -3357.4361   XYZZ     -23.7979   YYZZ    -714.1071
      XZZZ      13.8861   YZZZ     -13.0611   ZZZZ    -411.8026
 -----------------------------------------------------------------
 Calculating analytic gradient of the SCF energy
 K construction time:  CPU 2928.57 s  wall 185.51 s
 Gradient of SCF Energy
            1           2           3           4           5           6
    1   0.0000661  -0.0012887   0.0005337   0.0014217   0.0001993  -0.0011667
    2  -0.0000716  -0.0005375  -0.0001617   0.0000310  -0.0003127   0.0000623
    3  -0.0000066  -0.0001897  -0.0001302  -0.0000870   0.0001005  -0.0000955
            7           8           9          10          11          12
    1   0.0011081  -0.0009441  -0.0005633   0.0005571  -0.0000462   0.0001259
    2   0.0003274   0.0005496  -0.0000294  -0.0000914   0.0000681  -0.0004230
    3   0.0002261  -0.0001764  -0.0003271  -0.0004870   0.0000610   0.0003090
           13          14          15          16          17          18
    1  -0.0020371  -0.0000318   0.0004434   0.0025056   0.0004048   0.0003821
    2  -0.0000751  -0.0004387   0.0007097   0.0007867  -0.0004722   0.0004313
    3  -0.0003170   0.0002387  -0.0004003  -0.0019345   0.0004622   0.0011810
           19          20          21          22          23          24
    1  -0.0084295   0.0000503   0.0004896   0.0073514  -0.0010373   0.0013672
    2  -0.0061282  -0.0005289   0.0025485   0.0053824  -0.0010699  -0.0006988
    3  -0.0032680   0.0000872   0.0035878   0.0028946   0.0000490  -0.0002545
           25          26          27          28          29          30
    1  -0.0029537   0.0003181   0.0010120   0.0007774  -0.0012174   0.0000046
    2   0.0007695  -0.0022089   0.0023665  -0.0015261   0.0005177   0.0001936
    3  -0.0047807   0.0012512   0.0001940   0.0003968   0.0006846   0.0002811
           31          32          33          34          35          36
    1   0.0002632  -0.0002325   0.0000313   0.0002421   0.0002925   0.0003716
    2   0.0005576   0.0001442   0.0000734  -0.0002132   0.0000676  -0.0014893
    3   0.0000004   0.0001903   0.0000158   0.0004657  -0.0002752   0.0006141
           37          38          39
    1  -0.0004976   0.0002518  -0.0001250
    2  -0.0001380   0.0007174   0.0003101
    3  -0.0001709  -0.0004177   0.0000272
 Max gradient component =       8.429E-03
 RMS gradient           =       1.651E-03
 Gradient time:  CPU 3385.42 s  wall 216.53 s
 Geometry Optimization Parameters
   NAtoms,    NIC,     NZ,  NCons,   NDum,   NFix, NCnnct, MaxDiis
       39     293       0       3       0       0       0       0


** CONSTRAINED OPTIMIZATION IN DELOCALIZED INTERNAL COORDINATES **
   Searching for a Minimum

   Optimization Cycle:   1

                       Coordinates (Angstroms)
     ATOM                X               Y               Z
      1  C         7.6919000387    0.3562443984   -0.0910359957
      2  C         6.9985660144    1.5005667804    0.2680655025
      3  C         6.9617365595   -0.7671251821   -0.4444091356
      4  C         5.6193163032    1.4730397887    0.2676666163
      5  N         5.6355548197   -0.8093938873   -0.4459171675
      6  C         4.9744208106    0.2902382487   -0.0908790829
      7  C         3.4912262095    0.2423823332   -0.0931780548
      8  N         2.8566831931    1.3779987469   -0.1912515389
      9  C         2.7321940796   -0.9686245349    0.0242713691
     10  C         1.5033562875    1.4463710280   -0.1971337379
     11  N         3.1844456542   -2.2131119153    0.1916865762
     12  C         1.3020497578   -0.8906244643    0.0075422188
     13  C         0.6475418856    0.3735878477   -0.1052974716
     14  S         1.8951666796   -3.1605349876    0.2878477050
     15  N         0.7117289441   -2.0769313052    0.1376642527
     16  C        -0.7994417370    0.5241303238   -0.0902207741
     17  S        -1.8743494071   -0.8084161527   -0.2505946645
     18  C        -1.5543821616    1.6876436712    0.0604129914
     19  C        -3.2997268146    0.1233600377   -0.1566394222
     20  N        -1.0595863736    2.9460720086    0.2273824311
     21  C        -2.9664819082    1.4600780342    0.0265175477
     22  C        -4.6169145934   -0.4658080045   -0.2418741998
     23  C        -1.9403282370    3.8912458878    0.3430222471
     24  N        -3.8615681933    2.4767238930    0.1508407147
     25  C        -5.5935935777   -0.2090331041   -1.1645200599
     26  S        -5.1538249476   -1.6640796223    0.8916132212
     27  C        -3.3493103823    3.6591240598    0.3037979587
     28  C        -6.7712064480   -0.9643396127   -0.9499686287
     29  C        -6.6812502306   -1.7880070839    0.1277123268
     30  H         8.7723710447    0.3326780856   -0.0977913650
     31  H         7.5277450952    2.4025373351    0.5474623304
     32  H         7.4642284446   -1.6794404886   -0.7429667274
     33  H         5.0306150320    2.3375993033    0.5333075830
     34  H         1.0974908488    2.4427078761   -0.2628761448
     35  H        -1.5692006666    4.9025211547    0.4716486636
     36  H        -5.4522364323    0.4940681323   -1.9679362605
     37  H        -4.0354765414    4.4927862258    0.4061969713
     38  H        -7.6490900278   -0.8887383408   -1.5733836659
     39  H        -7.4271614401   -2.4644325849    0.5085282571
   Point Group: c1    Number of degrees of freedom:   111


   Energy is  -2291.147258834

              Constraints and their Current Values
                                        Value     Constraint
   Dihedral:        4   6   7   8       21.915       21.822
   Dihedral:       10  13  16  17      169.085      169.064
   Dihedral:       17  19  22  25     -120.000     -120.000

 Attempting to Generate Delocalized Internal Coordinates

   Using Lagrange Multiplier Algorithm


114 Hessian modes will be used to form the next step
  Hessian Eigenvalues:
    -0.977753   -0.977753   -0.977753    0.045000    0.045000    0.045000
     0.045000    0.045000    0.045000    0.045000    0.045000    0.045000
     0.045000    0.045000    0.045000    0.045000    0.045001    0.045001
     0.045001    0.045001    0.045001    0.045001    0.045001    0.045002
     0.045002    0.045002    0.045002    0.045003    0.045003    0.045004
     0.045004    0.045007    0.045008    0.045011    0.045025    0.045042
     0.159985    0.159992    0.159996    0.159998    0.159999    0.159999
     0.160000    0.160000    0.160000    0.160000    0.219998    0.221296
     0.223765    0.224234    0.233056    0.237962    0.243336    0.244277
     0.249685    0.249909    0.249932    0.249960    0.249971    0.249981
     0.249981    0.249983    0.249989    0.249990    0.249993    0.249993
     0.249995    0.312594    0.327535    0.334453    0.341192    0.341256
     0.354114    0.354472    0.355757    0.357029    0.359040    0.360704
     0.360954    0.362567    0.363660    0.364146    0.369052    0.372793
     0.376138    0.388453    0.390986    0.406991    0.407223    0.418661
     0.432515    0.440848    0.460521    0.465839    0.471161    0.473690
     0.482797    0.484038    0.485870    0.485956    0.504407    0.517477
     0.518995    0.525383    0.557629    0.572590    0.582389    0.589743
     0.639523    0.655133    0.663889    1.022753    1.022753    1.022753

 Minimum Search - Taking P-RFO Step
 Searching for Lamda that Maximizes Along the Constraint modes Only
 Value Taken    Lamda =   0.00001115
 Searching for Lamda that Minimizes Along All other modes
 Value Taken    Lamda =  -0.00067013
 Step Taken.  Stepsize is  0.091527

                             Maximum     Tolerance    Cnvgd?
         Gradient            0.003927       0.000300      NO
         Displacement        0.035607       0.001200      NO
         Energy change     *********       0.000001      NO


 New Cartesian Coordinates Obtained by Inverse Iteration

 Displacement from previous Coordinates is:  0.504516
 ----------------------------------------------------------------
             Standard Nuclear Orientation (Angstroms)
    I     Atom           X                Y                Z
 ----------------------------------------------------------------
    1      C       7.6920995845     0.3223519633    -0.1274003075
    2      C       7.0174045923     1.4697570619     0.2572621041
    3      C       6.9444699303    -0.7903383083    -0.4774504708
    4      C       5.6369343154     1.4562178692     0.2809294616
    5      N       5.6185724495    -0.8197966395    -0.4538569353
    6      C       4.9756356642     0.2825044114    -0.0761446046
    7      C       3.4918203638     0.2493454638    -0.0647701499
    8      N       2.8676279143     1.3915518063    -0.1502650028
    9      C       2.7243025667    -0.9554189963     0.0502325827
   10      C       1.5142224475     1.4727855607    -0.1556883020
   11      N       3.1666778755    -2.2046574356     0.2073164663
   12      C       1.2950764637    -0.8646384181     0.0362920344
   13      C       0.6512378192     0.4051409057    -0.0739783256
   14      S       1.8690982967    -3.1407759241     0.3000504058
   15      N       0.6940848694    -2.0468709037     0.1604237657
   16      C      -0.7976302835     0.5565095410    -0.0716835858
   17      S      -1.8580659104    -0.7835396911    -0.2457582061
   18      C      -1.5626404315     1.7166124360     0.0611990433
   19      C      -3.2874957893     0.1366773818    -0.1471171559
   20      N      -1.0829385994     2.9820666503     0.2244581772
   21      C      -2.9718804143     1.4748087945     0.0185257911
   22      C      -4.6054707465    -0.4676802755    -0.2384847289
   23      C      -1.9761187160     3.9168839220     0.3303912976
   24      N      -3.8826659480     2.4788627397     0.1326335390
   25      C      -5.5800315831    -0.2140217135    -1.1588726316
   26      S      -5.1293862601    -1.6772230317     0.8832147410
   27      C      -3.3828357700     3.6657924192     0.2837662879
   28      C      -6.7476797309    -0.9897048783    -0.9604409357
   29      C      -6.6443927704    -1.8297195543     0.1030408110
   30      H       8.7718492564     0.2871851725    -0.1578476331
   31      H       7.5605958287     2.3626574593     0.5354908303
   32      H       7.4330349855    -1.7036744879    -0.7968043332
   33      H       5.0608985927     2.3239179250     0.5632912219
   34      H       1.1153920078     2.4723227076    -0.2234323296
   35      H      -1.6205488777     4.9332892986     0.4608839484
   36      H      -5.4487848667     0.5057907908    -1.9518123929
   37      H      -4.0762315968     4.4936178946     0.3816816796
   38      H      -7.6258690962    -0.9257505988    -1.5844914813
   39      H      -7.3771608511    -2.5277753886     0.4705287106
 ----------------------------------------------------------------
 Molecular Point Group                 C1    NOp =  1
 Largest Abelian Subgroup              C1    NOp =  1
 Nuclear Repulsion Energy =  2927.4820343851 hartrees
 There are      110 alpha and      110 beta electrons
 Applying Cartesian multipole field
    Component          Value
    ---------          -----
     (2,0,0)        1.00000E-12
     (0,2,0)        2.00000E-11
     (0,0,2)       -3.00000E-11
 Nucleus-field energy     =     0.0000000634 hartrees
 Requested basis set is cc-pVTZ
 There are 356 shells and 1022 basis functions
 A cutoff of  1.0D-11 yielded  30894 shell pairs
 There are    243582 function pairs (    317971 Cartesian)
 Smallest overlap matrix eigenvalue = 2.78E-05
 Guess MOs from SCF MO coefficient file
 Reading MOs from coefficient file
 Reading MOs from coefficient file
 Long-range K will be added via erf
 Coulomb attenuation parameter = 0.2 bohr**(-1)
 A restricted hybrid HF-DFT SCF calculation will be
 performed using Pulay DIIS extrapolation
 Exchange:     0.2220 Hartree-Fock + 1.0000 wB97X-D + LR-HF
 Correlation:  1.0000 wB97X-D
 Using SG-2 standard quadrature grid
 Dispersion:   Grimme D
 SCF converges when DIIS error is below 1.0E-08
 Geometry optimization detected.  Setting ReadMinima to 0
 Setting SaveMinima to 0
 using 16 threads for integral computing 
 using 16 threads for integral computing 
 K construction time:  CPU 1115.25 s  wall 73.72 s
 -------------------------------------------------------
 OpenMP BLAS3 based DFT computing Module                
 Release: version 1.0, May 2013, Q-Chem Inc. Pittsburgh 
 -------------------------------------------------------
 ---------------------------------------
  Cycle       Energy         DIIS Error
 ---------------------------------------
    1   -2291.1469946872      2.57E-04
 K construction time:  CPU 1115.57 s  wall 73.67 s
    2   -2291.1474331464      2.74E-05
 K construction time:  CPU 821.25 s  wall 54.37 s
    3   -2291.1475449223      2.64E-05
 K construction time:  CPU 782.89 s  wall 51.66 s
    4   -2291.1476192939      1.08E-05
 K construction time:  CPU 737.14 s  wall 48.64 s
    5   -2291.1476353931      3.70E-06
 K construction time:  CPU 668.81 s  wall 44.13 s
    6   -2291.1476374925      1.29E-06
 K construction time:  CPU 603.73 s  wall 39.79 s
    7   -2291.1476377707      4.18E-07
 K construction time:  CPU 540.69 s  wall 35.56 s
    8   -2291.1476378032      1.98E-07
 K construction time:  CPU 496.73 s  wall 32.66 s
    9   -2291.1476378093      8.23E-08
 K construction time:  CPU 422.31 s  wall 27.82 s
   10   -2291.1476378105      3.18E-08
 K construction time:  CPU 379.66 s  wall 24.83 s
   11   -2291.1476378090      1.30E-08
 K construction time:  CPU 332.11 s  wall 21.70 s
   12   -2291.1476378073      5.76E-09 Convergence criterion met
 ---------------------------------------
 SCF time:  CPU 10813.42 s  wall 732.53 s
 SCF   energy in the final basis set = -2291.1476378073
 Total energy in the final basis set = -2291.1476378073
 
 --------------------------------------------------------------
 
                    Orbital Energies (a.u.)
 --------------------------------------------------------------
 
 Alpha MOs
 -- Occupied --
-89.146 -89.099 -89.079 -14.483 -14.479 -14.461 -14.460 -14.445
-14.434 -10.355 -10.353 -10.351 -10.344 -10.343 -10.342 -10.340
-10.339 -10.337 -10.336 -10.332 -10.331 -10.327 -10.324 -10.318
-10.310 -10.301 -10.298 -10.295 -10.294  -8.157  -8.113  -8.094
 -6.107  -6.101  -6.100  -6.062  -6.058  -6.057  -6.043  -6.039
 -6.037  -1.144  -1.100  -1.069  -1.049  -1.028  -1.013  -1.003
 -0.986  -0.925  -0.912  -0.896  -0.878  -0.867  -0.853  -0.838
 -0.811  -0.777  -0.771  -0.749  -0.738  -0.730  -0.716  -0.710
 -0.671  -0.656  -0.647  -0.629  -0.628  -0.620  -0.608  -0.604
 -0.586  -0.576  -0.568  -0.561  -0.558  -0.546  -0.543  -0.527
 -0.512  -0.507  -0.500  -0.498  -0.493  -0.491  -0.485  -0.481
 -0.475  -0.468  -0.463  -0.461  -0.449  -0.439  -0.428  -0.426
 -0.420  -0.411  -0.393  -0.376  -0.371  -0.360  -0.358  -0.343
 -0.340  -0.338  -0.335  -0.333  -0.320  -0.273
 -- Virtual --
 -0.053  -0.022   0.025   0.037   0.042   0.051   0.068   0.073
  0.083   0.094   0.108   0.117   0.122   0.124   0.129   0.133
  0.150   0.154   0.158   0.164   0.174   0.175   0.180   0.186
  0.193   0.202   0.209   0.216   0.225   0.230   0.241   0.247
  0.257   0.262   0.269   0.275   0.278   0.286   0.288   0.292
  0.300   0.303   0.305   0.312   0.317   0.322   0.323   0.329
  0.334   0.339   0.342   0.345   0.348   0.350   0.353   0.359
  0.361   0.368   0.371   0.373   0.380   0.385   0.386   0.389
  0.389   0.391   0.396   0.397   0.401   0.403   0.411   0.411
  0.414   0.418   0.423   0.426   0.429   0.433   0.433   0.438
  0.441   0.445   0.448   0.454   0.457   0.461   0.462   0.467
  0.469   0.474   0.476   0.478   0.482   0.483   0.489   0.493
  0.494   0.502   0.505   0.509   0.511   0.515   0.518   0.522
  0.524   0.531   0.532   0.537   0.539   0.542   0.546   0.549
  0.554   0.563   0.569   0.573   0.577   0.582   0.591   0.595
  0.597   0.603   0.607   0.611   0.619   0.625   0.631   0.638
  0.641   0.646   0.647   0.654   0.662   0.665   0.666   0.673
  0.677   0.680   0.684   0.688   0.697   0.705   0.714   0.716
  0.720   0.727   0.728   0.735   0.739   0.745   0.749   0.757
  0.761   0.762   0.766   0.773   0.777   0.781   0.783   0.790
  0.791   0.796   0.800   0.805   0.809   0.811   0.824   0.827
  0.830   0.834   0.839   0.841   0.844   0.850   0.851   0.854
  0.861   0.864   0.871   0.874   0.880   0.886   0.889   0.896
  0.905   0.911   0.917   0.922   0.927   0.930   0.932   0.938
  0.944   0.945   0.950   0.953   0.958   0.962   0.969   0.971
  0.981   0.982   0.986   0.989   0.998   1.002   1.009   1.013
  1.021   1.028   1.033   1.038   1.049   1.052   1.055   1.059
  1.066   1.071   1.077   1.082   1.084   1.090   1.096   1.098
  1.104   1.106   1.107   1.117   1.127   1.129   1.136   1.142
  1.152   1.154   1.163   1.171   1.173   1.182   1.191   1.198
  1.201   1.209   1.215   1.217   1.235   1.237   1.246   1.249
  1.259   1.262   1.271   1.275   1.286   1.289   1.293   1.298
  1.302   1.314   1.320   1.326   1.337   1.341   1.351   1.354
  1.360   1.366   1.371   1.373   1.377   1.382   1.387   1.393
  1.394   1.398   1.417   1.420   1.425   1.427   1.431   1.442
  1.444   1.449   1.450   1.461   1.468   1.479   1.479   1.482
  1.488   1.497   1.501   1.508   1.510   1.514   1.521   1.535
  1.538   1.558   1.563   1.571   1.573   1.582   1.586   1.591
  1.603   1.613   1.619   1.623   1.630   1.634   1.643   1.647
  1.656   1.662   1.664   1.669   1.687   1.693   1.696   1.700
  1.706   1.714   1.720   1.726   1.735   1.739   1.742   1.745
  1.757   1.765   1.779   1.780   1.783   1.796   1.804   1.807
  1.817   1.829   1.849   1.854   1.864   1.879   1.885   1.889
  1.894   1.898   1.909   1.916   1.926   1.935   1.942   1.950
  1.966   1.971   1.974   1.984   1.986   1.990   2.002   2.011
  2.017   2.022   2.032   2.038   2.044   2.049   2.058   2.066
  2.074   2.091   2.094   2.108   2.109   2.113   2.125   2.136
  2.142   2.151   2.158   2.169   2.177   2.184   2.196   2.201
  2.203   2.214   2.217   2.225   2.229   2.247   2.256   2.261
  2.271   2.274   2.280   2.291   2.295   2.298   2.314   2.315
  2.321   2.327   2.340   2.342   2.349   2.365   2.366   2.371
  2.376   2.384   2.390   2.398   2.403   2.406   2.416   2.430
  2.435   2.445   2.452   2.456   2.461   2.473   2.475   2.481
  2.495   2.503   2.507   2.514   2.522   2.526   2.529   2.536
  2.539   2.541   2.545   2.554   2.555   2.563   2.568   2.589
  2.606   2.613   2.629   2.633   2.637   2.643   2.657   2.663
  2.665   2.675   2.675   2.682   2.693   2.696   2.715   2.726
  2.732   2.734   2.739   2.746   2.754   2.766   2.776   2.782
  2.786   2.790   2.791   2.797   2.809   2.813   2.821   2.827
  2.831   2.838   2.846   2.855   2.869   2.876   2.878   2.879
  2.892   2.897   2.899   2.909   2.918   2.923   2.926   2.935
  2.938   2.946   2.948   2.952   2.957   2.971   2.977   2.979
  2.984   2.993   3.001   3.004   3.007   3.011   3.014   3.022
  3.023   3.033   3.037   3.042   3.051   3.058   3.059   3.061
  3.064   3.067   3.071   3.074   3.080   3.083   3.086   3.089
  3.093   3.101   3.106   3.108   3.119   3.122   3.128   3.131
  3.138   3.143   3.149   3.154   3.159   3.163   3.166   3.171
  3.174   3.178   3.185   3.188   3.196   3.199   3.200   3.207
  3.213   3.213   3.220   3.224   3.226   3.228   3.237   3.241
  3.243   3.249   3.253   3.260   3.262   3.264   3.266   3.275
  3.277   3.286   3.289   3.291   3.294   3.297   3.303   3.306
  3.313   3.315   3.319   3.329   3.330   3.341   3.342   3.345
  3.350   3.360   3.365   3.376   3.383   3.386   3.390   3.391
  3.398   3.404   3.410   3.414   3.419   3.420   3.428   3.435
  3.439   3.442   3.454   3.458   3.463   3.469   3.474   3.482
  3.486   3.490   3.495   3.496   3.509   3.514   3.516   3.524
  3.528   3.532   3.540   3.549   3.560   3.567   3.572   3.586
  3.589   3.602   3.606   3.616   3.621   3.627   3.629   3.642
  3.661   3.668   3.674   3.683   3.688   3.693   3.698   3.709
  3.714   3.717   3.727   3.733   3.741   3.746   3.748   3.763
  3.767   3.773   3.779   3.786   3.794   3.797   3.802   3.812
  3.819   3.829   3.837   3.844   3.852   3.858   3.877   3.878
  3.887   3.892   3.905   3.914   3.921   3.922   3.928   3.932
  3.934   3.936   3.947   3.950   3.958   3.962   3.972   3.978
  3.986   3.994   3.999   4.005   4.018   4.021   4.030   4.035
  4.046   4.058   4.066   4.070   4.079   4.091   4.093   4.101
  4.102   4.109   4.120   4.134   4.149   4.156   4.167   4.172
  4.181   4.184   4.195   4.201   4.205   4.208   4.221   4.222
  4.230   4.240   4.246   4.251   4.255   4.261   4.268   4.277
  4.287   4.295   4.301   4.313   4.319   4.321   4.331   4.335
  4.339   4.349   4.357   4.363   4.369   4.376   4.386   4.394
  4.407   4.412   4.422   4.430   4.439   4.440   4.445   4.448
  4.468   4.485   4.496   4.498   4.519   4.525   4.529   4.536
  4.549   4.552   4.566   4.568   4.581   4.591   4.593   4.609
  4.627   4.634   4.640   4.650   4.659   4.669   4.687   4.691
  4.710   4.717   4.724   4.739   4.761   4.762   4.778   4.794
  4.798   4.803   4.810   4.816   4.829   4.838   4.847   4.865
  4.873   4.876   4.885   4.894   4.900   4.914   4.919   4.935
  4.936   4.949   4.953   4.968   4.973   4.981   4.986   4.989
  4.992   5.004   5.009   5.013   5.025   5.039   5.046   5.052
  5.070   5.079   5.094   5.101   5.108   5.115   5.118   5.124
  5.134   5.138   5.148   5.156   5.168   5.176   5.182   5.190
  5.210   5.213   5.242   5.258   5.266   5.306   5.310   5.313
  5.324   5.342   5.351   5.374   5.379   5.400   5.418   5.427
  5.450   5.465   5.477   5.491   5.494   5.499   5.516   5.547
  5.554   5.564   5.577   5.588   5.598   5.607   5.614   5.650
  5.675   5.695   5.719   5.720   5.746   5.752   5.759   5.792
  5.795   5.827   5.838   5.859   5.876   5.888   5.910   5.922
  5.945   5.964   6.008   6.026   6.064   6.084   6.131   6.182
  6.200   6.242   6.251   6.271   6.306   6.355   6.382   6.408
  6.446   6.489   6.615   6.874   6.988   7.079   8.085   8.946
  9.795  10.077  10.651  11.139  11.329  11.591  12.008  12.106
 12.402  12.644  12.794  12.856  12.880  13.018  13.072  13.173
 13.329  13.424  13.481  14.064  14.237  14.658  15.064  15.092
 --------------------------------------------------------------
 
          Ground-State Mulliken Net Atomic Charges

     Atom                 Charge (a.u.)
  ----------------------------------------
      1 C                    -0.092484
      2 C                    -0.129228
      3 C                    -0.080111
      4 C                    -0.118157
      5 N                    -0.145038
      6 C                     0.082244
      7 C                     0.100063
      8 N                    -0.177393
      9 C                    -0.016926
     10 C                    -0.081772
     11 N                    -0.217394
     12 C                     0.053592
     13 C                     0.056384
     14 S                     0.405453
     15 N                    -0.305342
     16 C                    -0.068935
     17 S                     0.212458
     18 C                     0.045807
     19 C                    -0.089465
     20 N                    -0.170278
     21 C                     0.046906
     22 C                    -0.028205
     23 C                    -0.049022
     24 N                    -0.133833
     25 C                    -0.140804
     26 S                     0.120174
     27 C                    -0.050273
     28 C                    -0.148929
     29 C                    -0.184320
     30 H                     0.133053
     31 H                     0.120253
     32 H                     0.119600
     33 H                     0.138055
     34 H                     0.137389
     35 H                     0.128229
     36 H                     0.133412
     37 H                     0.131361
     38 H                     0.129317
     39 H                     0.134159
  ----------------------------------------
  Sum of atomic charges =     0.000000

 -----------------------------------------------------------------
                    Cartesian Multipole Moments
 -----------------------------------------------------------------
    Charge (ESU x 10^10)
                 0.0000
    Dipole Moment (Debye)
         X      -0.0157      Y       1.2662      Z       0.1254
       Tot       1.2725
    Quadrupole Moments (Debye-Ang)
        XX    -153.7172     XY       4.7018     YY    -166.9244
        XZ       5.7419     YZ       0.3630     ZZ    -183.7380
    Octopole Moments (Debye-Ang^2)
       XXX     132.7648    XXY      -1.5336    XYY     -30.6646
       YYY      37.4180    XXZ     -17.4802    XYZ      17.1103
       YYZ      17.0533    XZZ     -15.5814    YZZ      -6.9526
       ZZZ      -2.0334
    Hexadecapole Moments (Debye-Ang^3)
      XXXX  -16180.8921   XXXY     690.7358   XXYY   -3590.5533
      XYYY    -198.7576   YYYY   -3348.1330   XXXZ     183.8776
      XXYZ      17.8075   XYYZ     -37.7763   YYYZ      25.8898
      XXZZ   -3348.7284   XYZZ     -21.3300   YYZZ    -716.6132
      XZZZ       7.3227   YZZZ     -11.0382   ZZZZ    -411.0473
 -----------------------------------------------------------------
 Calculating analytic gradient of the SCF energy
 K construction time:  CPU 2914.58 s  wall 184.69 s
 Gradient of SCF Energy
            1           2           3           4           5           6
    1   0.0001212  -0.0002077   0.0000794   0.0002234  -0.0000282  -0.0003292
    2  -0.0002484   0.0000241   0.0001279   0.0003170   0.0000079  -0.0003231
    3  -0.0001728   0.0000776   0.0000098  -0.0003261   0.0001445   0.0005811
            7           8           9          10          11          12
    1   0.0005223  -0.0002717   0.0000256   0.0004875   0.0001860  -0.0001676
    2  -0.0002038   0.0000494  -0.0000987   0.0004057   0.0001197  -0.0002133
    3  -0.0005386   0.0000731   0.0001138  -0.0000673  -0.0001190   0.0003387
           13          14          15          16          17          18
    1  -0.0005449  -0.0000149  -0.0005927   0.0006016   0.0013033  -0.0003052
    2  -0.0004409   0.0001013   0.0004460  -0.0003156   0.0000895   0.0002656
    3  -0.0003688   0.0000308  -0.0002329  -0.0007106  -0.0013415   0.0008435
           19          20          21          22          23          24
    1  -0.0015804  -0.0006629   0.0000638   0.0009091  -0.0006788   0.0003902
    2  -0.0013141  -0.0001769   0.0011807   0.0027340   0.0000739  -0.0009816
    3  -0.0004275   0.0000023   0.0019266   0.0011732  -0.0000051  -0.0004775
           25          26          27          28          29          30
    1  -0.0002817  -0.0005220   0.0006082   0.0002518  -0.0000721  -0.0000030
    2  -0.0013733  -0.0000051   0.0005451  -0.0004661   0.0000846   0.0000184
    3  -0.0010593   0.0006745   0.0000223   0.0004716  -0.0003655   0.0001545
           31          32          33          34          35          36
    1  -0.0000154  -0.0000042  -0.0000504   0.0002384   0.0001559   0.0002892
    2   0.0000355  -0.0000200   0.0000058  -0.0002372   0.0000108  -0.0003513
    3  -0.0000961   0.0000678  -0.0000448   0.0000295  -0.0000558  -0.0002276
           37          38          39
    1  -0.0001179  -0.0000028  -0.0000031
    2  -0.0002339   0.0003360   0.0000243
    3  -0.0000616  -0.0000332  -0.0000037
 Max gradient component =       2.734E-03
 RMS gradient           =       5.563E-04
 Gradient time:  CPU 3371.84 s  wall 215.70 s
 Geometry Optimization Parameters
   NAtoms,    NIC,     NZ,  NCons,   NDum,   NFix, NCnnct, MaxDiis
       39     293       0       3       0       0       0       0

 Cartesian Hessian Update
 Hessian Updated using BFGS Update


** CONSTRAINED OPTIMIZATION IN DELOCALIZED INTERNAL COORDINATES **
   Searching for a Minimum

   Optimization Cycle:   2

                       Coordinates (Angstroms)
     ATOM                X               Y               Z
      1  C         7.6920995845    0.3223519633   -0.1274003075
      2  C         7.0174045923    1.4697570619    0.2572621041
      3  C         6.9444699303   -0.7903383083   -0.4774504708
      4  C         5.6369343154    1.4562178692    0.2809294616
      5  N         5.6185724495   -0.8197966395   -0.4538569353
      6  C         4.9756356642    0.2825044114   -0.0761446046
      7  C         3.4918203638    0.2493454638   -0.0647701499
      8  N         2.8676279143    1.3915518063   -0.1502650028
      9  C         2.7243025667   -0.9554189963    0.0502325827
     10  C         1.5142224475    1.4727855607   -0.1556883020
     11  N         3.1666778755   -2.2046574356    0.2073164663
     12  C         1.2950764637   -0.8646384181    0.0362920344
     13  C         0.6512378192    0.4051409057   -0.0739783256
     14  S         1.8690982967   -3.1407759241    0.3000504058
     15  N         0.6940848694   -2.0468709037    0.1604237657
     16  C        -0.7976302835    0.5565095410   -0.0716835858
     17  S        -1.8580659104   -0.7835396911   -0.2457582061
     18  C        -1.5626404315    1.7166124360    0.0611990433
     19  C        -3.2874957893    0.1366773818   -0.1471171559
     20  N        -1.0829385994    2.9820666503    0.2244581772
     21  C        -2.9718804143    1.4748087945    0.0185257911
     22  C        -4.6054707465   -0.4676802755   -0.2384847289
     23  C        -1.9761187160    3.9168839220    0.3303912976
     24  N        -3.8826659480    2.4788627397    0.1326335390
     25  C        -5.5800315831   -0.2140217135   -1.1588726316
     26  S        -5.1293862601   -1.6772230317    0.8832147410
     27  C        -3.3828357700    3.6657924192    0.2837662879
     28  C        -6.7476797309   -0.9897048783   -0.9604409357
     29  C        -6.6443927704   -1.8297195543    0.1030408110
     30  H         8.7718492564    0.2871851725   -0.1578476331
     31  H         7.5605958287    2.3626574593    0.5354908303
     32  H         7.4330349855   -1.7036744879   -0.7968043332
     33  H         5.0608985927    2.3239179250    0.5632912219
     34  H         1.1153920078    2.4723227076   -0.2234323296
     35  H        -1.6205488777    4.9332892986    0.4608839484
     36  H        -5.4487848667    0.5057907908   -1.9518123929
     37  H        -4.0762315968    4.4936178946    0.3816816796
     38  H        -7.6258690962   -0.9257505988   -1.5844914813
     39  H        -7.3771608511   -2.5277753886    0.4705287106
   Point Group: c1    Number of degrees of freedom:   111


   Energy is  -2291.147637807

              Constraints and their Current Values
                                        Value     Constraint
   Dihedral:        4   6   7   8       21.822       21.822
   Dihedral:       10  13  16  17      169.064      169.064
   Dihedral:       17  19  22  25     -120.000     -120.000
 Hessian Updated using BFGS Update

   Using Lagrange Multiplier Algorithm


110 Hessian modes will be used to form the next step
  Hessian Eigenvalues:
    -0.977701    0.027127    0.045000    0.045000    0.045000    0.045000
     0.045000    0.045000    0.045000    0.045000    0.045000    0.045000
     0.045000    0.045000    0.045000    0.045001    0.045001    0.045001
     0.045001    0.045001    0.045001    0.045001    0.045002    0.045002
     0.045002    0.045003    0.045003    0.045004    0.045005    0.045008
     0.045011    0.045025    0.045041    0.048396    0.157369    0.159989
     0.159993    0.159996    0.159999    0.159999    0.160000    0.160000
     0.160000    0.160066    0.219970    0.220881    0.223086    0.224202
     0.232949    0.237114    0.239712    0.244204    0.246981    0.249686
     0.249928    0.249944    0.249962    0.249973    0.249981    0.249983
     0.249989    0.249992    0.249993    0.249995    0.299586    0.320372
     0.330552    0.335384    0.341002    0.344858    0.354103    0.354556
     0.355829    0.357423    0.359040    0.360693    0.360952    0.362164
     0.364143    0.365192    0.368901    0.373547    0.376447    0.390367
     0.393457    0.407075    0.410062    0.418927    0.432511    0.456865
     0.460941    0.468438    0.471372    0.473809    0.481505    0.484953
     0.485828    0.488882    0.506370    0.516178    0.524835    0.534596
     0.557759    0.572805    0.582332    0.589764    0.639711    0.655629
     0.663725    1.022855

 Minimum Search - Taking P-RFO Step
 Searching for Lamda that Maximizes Along the Constraint modes Only
 Value Taken    Lamda =   0.00000003
 Searching for Lamda that Minimizes Along All other modes
 Value Taken    Lamda =  -0.00027821
 Step Taken.  Stepsize is  0.085368

                             Maximum     Tolerance    Cnvgd?
         Gradient            0.003513       0.000300      NO
         Displacement        0.032839       0.001200      NO
         Energy change     -0.000379       0.000001      NO


 New Cartesian Coordinates Obtained by Inverse Iteration

 Displacement from previous Coordinates is:  0.475027
 ----------------------------------------------------------------
             Standard Nuclear Orientation (Angstroms)
    I     Atom           X                Y                Z
 ----------------------------------------------------------------
    1      C       7.6842617256     0.3438139422    -0.1778191138
    2      C       7.0119711369     1.4834663439     0.2328428521
    3      C       6.9358890319    -0.7711321522    -0.5191869321
    4      C       5.6318378074     1.4611198936     0.2869860345
    5      N       5.6113903271    -0.8094292662    -0.4647071302
    6      C       4.9707498832     0.2857339121    -0.0635797565
    7      C       3.4869393624     0.2445421124    -0.0314656926
    8      N       2.8562465087     1.3835291690    -0.1051511576
    9      C       2.7285091611    -0.9651454453     0.0883513892
   10      C       1.5021218522     1.4556708256    -0.1061611604
   11      N       3.1809968908    -2.2115392225     0.2400887646
   12      C       1.2985972176    -0.8840733112     0.0827643871
   13      C       0.6467747048     0.3825325605    -0.0274838083
   14      S       1.8915852103    -3.1577070687     0.3396002263
   15      N       0.7081827144    -2.0720352999     0.2090532422
   16      C      -0.8032529937     0.5349375521    -0.0360562245
   17      S      -1.8724506661    -0.7977319532    -0.2136296137
   18      C      -1.5588901808     1.7023496807     0.0725726175
   19      C      -3.2920134180     0.1353889348    -0.1260734578
   20      N      -1.0671413858     2.9650590326     0.2246945254
   21      C      -2.9696025821     1.4716088545     0.0200928077
   22      C      -4.6171035732    -0.4612696819    -0.2341583684
   23      C      -1.9534552519     3.9079335503     0.3140872932
   24      N      -3.8740121622     2.4846982776     0.1177009478
   25      C      -5.5779023865    -0.1967925573    -1.1631907955
   26      S      -5.1528704497    -1.6792439250     0.8683543662
   27      C      -3.3630271074     3.6674043038     0.2603901488
   28      C      -6.7486602812    -0.9744350391    -0.9883402536
   29      C      -6.6560379756    -1.8273416588     0.0663336452
   30      H       8.7630475357     0.3155309067    -0.2367768414
   31      H       7.5559825524     2.3770229847     0.5059895764
   32      H       7.4229340544    -1.6778105623    -0.8597256567
   33      H       5.0568642844     2.3233157608     0.5875496579
   34      H       1.0948569505     2.4524933639    -0.1750281466
   35      H      -1.5925319774     4.9230197528     0.4385884973
   36      H      -5.4393169212     0.5355606910    -1.9444298471
   37      H      -4.0468912496     4.5044962614     0.3467303403
   38      H      -7.6202410788    -0.9085891734    -1.6211601325
   39      H      -7.3911296884    -2.5318884204     0.4166661566
 ----------------------------------------------------------------
 Molecular Point Group                 C1    NOp =  1
 Largest Abelian Subgroup              C1    NOp =  1
 Nuclear Repulsion Energy =  2926.7489520224 hartrees
 There are      110 alpha and      110 beta electrons
 Applying Cartesian multipole field
    Component          Value
    ---------          -----
     (2,0,0)        1.00000E-12
     (0,2,0)        2.00000E-11
     (0,0,2)       -3.00000E-11
 Nucleus-field energy     =     0.0000000635 hartrees
 Requested basis set is cc-pVTZ
 There are 356 shells and 1022 basis functions
 A cutoff of  1.0D-11 yielded  30893 shell pairs
 There are    243657 function pairs (    318086 Cartesian)
 Smallest overlap matrix eigenvalue = 2.77E-05
 Guess MOs from SCF MO coefficient file
 Reading MOs from coefficient file
 Reading MOs from coefficient file
 Long-range K will be added via erf
 Coulomb attenuation parameter = 0.2 bohr**(-1)
 A restricted hybrid HF-DFT SCF calculation will be
 performed using Pulay DIIS extrapolation
 Exchange:     0.2220 Hartree-Fock + 1.0000 wB97X-D + LR-HF
 Correlation:  1.0000 wB97X-D
 Using SG-2 standard quadrature grid
 Dispersion:   Grimme D
 SCF converges when DIIS error is below 1.0E-08
 Geometry optimization detected.  Setting ReadMinima to 0
 Setting SaveMinima to 0
 using 16 threads for integral computing 
 using 16 threads for integral computing 
 K construction time:  CPU 1118.62 s  wall 73.91 s
 -------------------------------------------------------
 OpenMP BLAS3 based DFT computing Module                
 Release: version 1.0, May 2013, Q-Chem Inc. Pittsburgh 
 -------------------------------------------------------
 ---------------------------------------
  Cycle       Energy         DIIS Error
 ---------------------------------------
    1   -2291.1420166813      2.41E-04
 K construction time:  CPU 1119.30 s  wall 73.88 s
    2   -2291.1475484048      2.51E-05
 K construction time:  CPU 823.70 s  wall 54.57 s
    3   -2291.1476786851      2.19E-05
 K construction time:  CPU 775.84 s  wall 51.30 s
    4   -2291.1477304258      1.04E-05
 K construction time:  CPU 725.51 s  wall 48.01 s
    5   -2291.1477457169      3.60E-06
 K construction time:  CPU 671.52 s  wall 44.40 s
    6   -2291.1477475351      1.37E-06
 K construction time:  CPU 610.60 s  wall 40.30 s
    7   -2291.1477478094      4.69E-07
 K construction time:  CPU 550.89 s  wall 36.26 s
    8   -2291.1477478477      2.17E-07
 K construction time:  CPU 499.57 s  wall 32.82 s
    9   -2291.1477478574      8.80E-08
 K construction time:  CPU 439.31 s  wall 28.82 s
   10   -2291.1477478588      3.65E-08
 K construction time:  CPU 394.49 s  wall 25.86 s
   11   -2291.1477478565      1.53E-08
 K construction time:  CPU 350.96 s  wall 22.99 s
   12   -2291.1477478570      6.38E-09 Convergence criterion met
 ---------------------------------------
 SCF time:  CPU 10888.67 s  wall 737.47 s
 SCF   energy in the final basis set = -2291.1477478570
 Total energy in the final basis set = -2291.1477478570
 
 --------------------------------------------------------------
 
                    Orbital Energies (a.u.)
 --------------------------------------------------------------
 
 Alpha MOs
 -- Occupied --
-89.146 -89.099 -89.079 -14.482 -14.479 -14.462 -14.460 -14.445
-14.434 -10.355 -10.352 -10.351 -10.345 -10.343 -10.342 -10.340
-10.340 -10.337 -10.336 -10.332 -10.330 -10.326 -10.324 -10.318
-10.310 -10.301 -10.298 -10.295 -10.294  -8.156  -8.114  -8.094
 -6.107  -6.101  -6.100  -6.062  -6.059  -6.057  -6.043  -6.039
 -6.037  -1.143  -1.100  -1.069  -1.049  -1.029  -1.013  -1.003
 -0.987  -0.925  -0.912  -0.896  -0.878  -0.868  -0.853  -0.838
 -0.812  -0.777  -0.771  -0.748  -0.738  -0.730  -0.716  -0.710
 -0.671  -0.656  -0.647  -0.629  -0.628  -0.620  -0.608  -0.604
 -0.586  -0.576  -0.567  -0.561  -0.558  -0.547  -0.543  -0.527
 -0.512  -0.507  -0.499  -0.498  -0.493  -0.492  -0.485  -0.481
 -0.475  -0.468  -0.463  -0.461  -0.449  -0.440  -0.429  -0.426
 -0.420  -0.411  -0.394  -0.376  -0.371  -0.360  -0.357  -0.343
 -0.340  -0.338  -0.334  -0.333  -0.320  -0.273
 -- Virtual --
 -0.053  -0.022   0.025   0.037   0.042   0.051   0.069   0.073
  0.083   0.094   0.108   0.117   0.122   0.125   0.129   0.133
  0.150   0.154   0.158   0.164   0.174   0.175   0.180   0.186
  0.194   0.202   0.209   0.216   0.225   0.231   0.241   0.246
  0.257   0.262   0.268   0.275   0.279   0.286   0.288   0.292
  0.300   0.303   0.306   0.312   0.317   0.322   0.323   0.330
  0.335   0.339   0.342   0.345   0.348   0.350   0.353   0.359
  0.361   0.368   0.372   0.372   0.380   0.385   0.386   0.389
  0.390   0.392   0.396   0.397   0.401   0.403   0.411   0.411
  0.415   0.418   0.423   0.426   0.429   0.433   0.433   0.438
  0.441   0.444   0.448   0.454   0.457   0.461   0.462   0.467
  0.469   0.474   0.476   0.479   0.482   0.484   0.488   0.493
  0.494   0.502   0.505   0.509   0.511   0.515   0.518   0.522
  0.525   0.531   0.532   0.537   0.539   0.542   0.546   0.549
  0.555   0.563   0.569   0.573   0.577   0.582   0.591   0.595
  0.597   0.603   0.607   0.611   0.618   0.626   0.631   0.638
  0.641   0.646   0.647   0.655   0.662   0.664   0.667   0.673
  0.677   0.679   0.684   0.688   0.699   0.706   0.714   0.717
  0.720   0.726   0.728   0.735   0.739   0.745   0.749   0.758
  0.761   0.763   0.767   0.773   0.777   0.780   0.783   0.791
  0.792   0.795   0.799   0.806   0.809   0.811   0.824   0.826
  0.829   0.833   0.839   0.842   0.845   0.849   0.852   0.854
  0.861   0.865   0.871   0.874   0.880   0.887   0.890   0.895
  0.905   0.911   0.917   0.921   0.927   0.930   0.933   0.938
  0.944   0.947   0.950   0.953   0.957   0.961   0.970   0.971
  0.982   0.983   0.986   0.989   0.999   1.001   1.007   1.014
  1.022   1.029   1.034   1.038   1.049   1.051   1.055   1.060
  1.066   1.071   1.077   1.082   1.085   1.090   1.097   1.098
  1.103   1.106   1.107   1.117   1.127   1.132   1.137   1.143
  1.152   1.155   1.163   1.170   1.173   1.182   1.191   1.198
  1.201   1.210   1.215   1.217   1.234   1.237   1.247   1.249
  1.260   1.263   1.272   1.274   1.287   1.289   1.295   1.299
  1.302   1.314   1.321   1.325   1.338   1.342   1.351   1.354
  1.359   1.366   1.371   1.373   1.377   1.383   1.386   1.392
  1.394   1.398   1.417   1.421   1.425   1.427   1.431   1.442
  1.445   1.449   1.450   1.461   1.470   1.479   1.481   1.482
  1.488   1.497   1.501   1.508   1.510   1.515   1.521   1.536
  1.538   1.557   1.563   1.572   1.574   1.582   1.586   1.591
  1.603   1.614   1.621   1.623   1.630   1.636   1.643   1.646
  1.656   1.662   1.664   1.669   1.687   1.693   1.696   1.700
  1.708   1.714   1.720   1.726   1.735   1.740   1.742   1.744
  1.756   1.765   1.778   1.779   1.784   1.798   1.804   1.807
  1.817   1.829   1.846   1.854   1.864   1.879   1.885   1.891
  1.894   1.898   1.908   1.916   1.926   1.936   1.943   1.950
  1.965   1.970   1.973   1.984   1.986   1.989   2.003   2.011
  2.017   2.021   2.033   2.038   2.044   2.049   2.057   2.067
  2.076   2.090   2.094   2.107   2.109   2.114   2.124   2.136
  2.142   2.153   2.158   2.170   2.177   2.184   2.197   2.201
  2.203   2.215   2.218   2.226   2.228   2.245   2.256   2.260
  2.270   2.274   2.280   2.292   2.295   2.297   2.314   2.315
  2.322   2.327   2.340   2.343   2.349   2.365   2.366   2.371
  2.377   2.385   2.390   2.398   2.405   2.407   2.416   2.429
  2.435   2.446   2.451   2.456   2.461   2.474   2.476   2.480
  2.494   2.504   2.506   2.514   2.522   2.526   2.530   2.536
  2.538   2.541   2.545   2.555   2.556   2.563   2.570   2.589
  2.605   2.612   2.630   2.633   2.637   2.644   2.657   2.663
  2.665   2.675   2.676   2.682   2.692   2.697   2.715   2.727
  2.732   2.734   2.739   2.746   2.754   2.766   2.777   2.781
  2.786   2.790   2.790   2.797   2.809   2.813   2.821   2.827
  2.831   2.838   2.846   2.854   2.869   2.876   2.878   2.879
  2.893   2.896   2.898   2.910   2.917   2.922   2.926   2.934
  2.938   2.945   2.948   2.952   2.957   2.971   2.978   2.980
  2.984   2.993   3.001   3.003   3.007   3.010   3.015   3.022
  3.023   3.033   3.037   3.042   3.051   3.058   3.059   3.062
  3.065   3.067   3.071   3.075   3.081   3.084   3.087   3.089
  3.093   3.101   3.104   3.107   3.119   3.122   3.129   3.131
  3.141   3.144   3.149   3.155   3.159   3.163   3.166   3.171
  3.173   3.179   3.185   3.189   3.196   3.199   3.200   3.208
  3.212   3.214   3.221   3.224   3.227   3.228   3.236   3.241
  3.243   3.250   3.253   3.259   3.261   3.264   3.266   3.276
  3.277   3.286   3.289   3.291   3.295   3.297   3.303   3.306
  3.312   3.316   3.319   3.329   3.331   3.340   3.342   3.344
  3.349   3.361   3.366   3.376   3.384   3.386   3.390   3.392
  3.398   3.404   3.409   3.415   3.417   3.421   3.428   3.435
  3.440   3.442   3.454   3.457   3.464   3.470   3.475   3.483
  3.486   3.491   3.496   3.496   3.509   3.515   3.517   3.523
  3.528   3.532   3.539   3.549   3.561   3.568   3.573   3.586
  3.589   3.601   3.606   3.616   3.620   3.629   3.630   3.643
  3.661   3.667   3.674   3.684   3.688   3.693   3.699   3.709
  3.713   3.718   3.728   3.733   3.741   3.747   3.748   3.762
  3.767   3.773   3.779   3.786   3.794   3.795   3.803   3.811
  3.819   3.829   3.836   3.844   3.854   3.858   3.877   3.880
  3.887   3.892   3.905   3.913   3.921   3.922   3.928   3.932
  3.935   3.936   3.946   3.950   3.959   3.962   3.970   3.978
  3.987   3.995   3.998   4.007   4.018   4.024   4.031   4.035
  4.045   4.057   4.068   4.070   4.080   4.090   4.092   4.101
  4.104   4.109   4.120   4.133   4.148   4.157   4.167   4.173
  4.180   4.184   4.196   4.201   4.204   4.208   4.221   4.223
  4.230   4.237   4.246   4.251   4.255   4.262   4.268   4.277
  4.288   4.296   4.301   4.313   4.320   4.321   4.332   4.336
  4.340   4.348   4.358   4.363   4.370   4.377   4.387   4.395
  4.406   4.411   4.422   4.430   4.438   4.440   4.446   4.448
  4.468   4.486   4.496   4.497   4.519   4.526   4.529   4.536
  4.549   4.552   4.566   4.567   4.580   4.589   4.593   4.610
  4.628   4.634   4.639   4.650   4.659   4.669   4.687   4.690
  4.710   4.718   4.723   4.738   4.763   4.763   4.777   4.795
  4.798   4.803   4.810   4.816   4.828   4.838   4.846   4.865
  4.872   4.875   4.884   4.894   4.900   4.914   4.919   4.936
  4.936   4.949   4.952   4.968   4.973   4.981   4.986   4.990
  4.992   5.004   5.010   5.013   5.025   5.040   5.046   5.054
  5.070   5.080   5.094   5.102   5.108   5.117   5.118   5.124
  5.135   5.136   5.149   5.155   5.166   5.176   5.181   5.188
  5.209   5.213   5.241   5.258   5.266   5.305   5.310   5.313
  5.324   5.343   5.352   5.374   5.380   5.402   5.419   5.427
  5.452   5.465   5.476   5.491   5.494   5.500   5.514   5.546
  5.553   5.564   5.578   5.589   5.598   5.607   5.615   5.649
  5.676   5.698   5.719   5.722   5.746   5.752   5.759   5.792
  5.796   5.829   5.838   5.860   5.875   5.887   5.912   5.922
  5.947   5.964   6.011   6.027   6.064   6.085   6.132   6.181
  6.201   6.243   6.250   6.269   6.307   6.355   6.384   6.407
  6.447   6.490   6.616   6.875   6.985   7.079   8.089   8.954
  9.786  10.069  10.642  11.136  11.331  11.573  11.999  12.096
 12.399  12.642  12.796  12.854  12.883  13.009  13.075  13.190
 13.331  13.422  13.503  14.072  14.248  14.663  15.065  15.096
 --------------------------------------------------------------
 
          Ground-State Mulliken Net Atomic Charges

     Atom                 Charge (a.u.)
  ----------------------------------------
      1 C                    -0.092451
      2 C                    -0.129224
      3 C                    -0.080369
      4 C                    -0.118449
      5 N                    -0.145005
      6 C                     0.082849
      7 C                     0.099292
      8 N                    -0.177526
      9 C                    -0.016947
     10 C                    -0.081552
     11 N                    -0.217739
     12 C                     0.053074
     13 C                     0.055352
     14 S                     0.406301
     15 N                    -0.305883
     16 C                    -0.067595
     17 S                     0.212067
     18 C                     0.045205
     19 C                    -0.091246
     20 N                    -0.169518
     21 C                     0.047926
     22 C                    -0.026986
     23 C                    -0.049648
     24 N                    -0.134537
     25 C                    -0.140644
     26 S                     0.120886
     27 C                    -0.049159
     28 C                    -0.149068
     29 C                    -0.184870
     30 H                     0.132990
     31 H                     0.120340
     32 H                     0.119370
     33 H                     0.137846
     34 H                     0.138574
     35 H                     0.128213
     36 H                     0.133237
     37 H                     0.131347
     38 H                     0.129512
     39 H                     0.134035
  ----------------------------------------
  Sum of atomic charges =     0.000000

 -----------------------------------------------------------------
                    Cartesian Multipole Moments
 -----------------------------------------------------------------
    Charge (ESU x 10^10)
                 0.0000
    Dipole Moment (Debye)
         X      -0.0372      Y       1.3108      Z       0.0564
       Tot       1.3125
    Quadrupole Moments (Debye-Ang)
        XX    -153.8870     XY       4.8444     YY    -166.7390
        XZ       5.5268     YZ       0.3159     ZZ    -183.7191
    Octopole Moments (Debye-Ang^2)
       XXX     132.5125    XXY      -0.7111    XYY     -30.2577
       YYY      39.7942    XXZ     -23.8855    XYZ      16.9981
       YYZ      14.8697    XZZ     -14.8066    YZZ      -6.3086
       ZZZ      -6.5574
    Hexadecapole Moments (Debye-Ang^3)
      XXXX  -16209.4263   XXXY     702.9247   XXYY   -3592.3407
      XYYY    -201.0761   YYYY   -3348.2551   XXXZ     152.9215
      XXYZ      22.5284   XYYZ     -37.6037   YYYZ      30.8958
      XXZZ   -3347.6460   XYZZ     -24.7452   YYZZ    -718.2274
      XZZZ       0.0791   YZZZ      -3.1384   ZZZZ    -413.0763
 -----------------------------------------------------------------
 Calculating analytic gradient of the SCF energy
 K construction time:  CPU 2912.88 s  wall 184.50 s
 Gradient of SCF Energy
            1           2           3           4           5           6
    1   0.0000105   0.0003648  -0.0001429  -0.0003838  -0.0000870   0.0002744
    2  -0.0001044   0.0002153   0.0001195   0.0003852   0.0001964  -0.0004261
    3  -0.0001565   0.0001622   0.0001237  -0.0006083   0.0001269   0.0011691
            7           8           9          10          11          12
    1  -0.0002207  -0.0001291   0.0001358  -0.0002665  -0.0001243   0.0002883
    2  -0.0001892  -0.0000041   0.0000710  -0.0002579  -0.0001212   0.0002312
    3  -0.0012312   0.0004788   0.0003322   0.0003242  -0.0002002   0.0003952
           13          14          15          16          17          18
    1   0.0002207   0.0001325   0.0005381  -0.0007960  -0.0006010  -0.0003013
    2   0.0002464  -0.0003308  -0.0002855   0.0001285   0.0004914   0.0001154
    3  -0.0002726   0.0000059  -0.0000466   0.0001848  -0.0025024   0.0004679
           19          20          21          22          23          24
    1   0.0029436   0.0008068  -0.0001856  -0.0033436  -0.0000711  -0.0002894
    2   0.0008424  -0.0006918  -0.0003840   0.0011673   0.0005214  -0.0005681
    3   0.0015298  -0.0003772   0.0006260   0.0003971  -0.0000783  -0.0003401
           25          26          27          28          29          30
    1   0.0016056  -0.0005503   0.0002230  -0.0001481   0.0005167  -0.0000130
    2  -0.0023156   0.0010065  -0.0002917   0.0002637  -0.0000263  -0.0000814
    3   0.0003808   0.0000847  -0.0000647   0.0000308  -0.0003845   0.0000270
           31          32          33          34          35          36
    1  -0.0001055   0.0000901  -0.0000461  -0.0004375  -0.0000360   0.0001203
    2  -0.0001801  -0.0000662  -0.0000298   0.0004292  -0.0000551   0.0002397
    3  -0.0001100  -0.0000671  -0.0000561  -0.0002167   0.0000955  -0.0005011
           37          38          39
    1   0.0000847  -0.0001290   0.0000517
    2  -0.0000864  -0.0000480  -0.0001267
    3   0.0000570   0.0001978   0.0000162
 Max gradient component =       3.344E-03
 RMS gradient           =       6.657E-04
 Gradient time:  CPU 3372.65 s  wall 215.84 s
 Geometry Optimization Parameters
   NAtoms,    NIC,     NZ,  NCons,   NDum,   NFix, NCnnct, MaxDiis
       39     293       0       3       0       0       0       0

 Cartesian Hessian Update
 Hessian Updated using BFGS Update


** CONSTRAINED OPTIMIZATION IN DELOCALIZED INTERNAL COORDINATES **
   Searching for a Minimum

   Optimization Cycle:   3

                       Coordinates (Angstroms)
     ATOM                X               Y               Z
      1  C         7.6842617256    0.3438139422   -0.1778191138
      2  C         7.0119711369    1.4834663439    0.2328428521
      3  C         6.9358890319   -0.7711321522   -0.5191869321
      4  C         5.6318378074    1.4611198936    0.2869860345
      5  N         5.6113903271   -0.8094292662   -0.4647071302
      6  C         4.9707498832    0.2857339121   -0.0635797565
      7  C         3.4869393624    0.2445421124   -0.0314656926
      8  N         2.8562465087    1.3835291690   -0.1051511576
      9  C         2.7285091611   -0.9651454453    0.0883513892
     10  C         1.5021218522    1.4556708256   -0.1061611604
     11  N         3.1809968908   -2.2115392225    0.2400887646
     12  C         1.2985972176   -0.8840733112    0.0827643871
     13  C         0.6467747048    0.3825325605   -0.0274838083
     14  S         1.8915852103   -3.1577070687    0.3396002263
     15  N         0.7081827144   -2.0720352999    0.2090532422
     16  C        -0.8032529937    0.5349375521   -0.0360562245
     17  S        -1.8724506661   -0.7977319532   -0.2136296137
     18  C        -1.5588901808    1.7023496807    0.0725726175
     19  C        -3.2920134180    0.1353889348   -0.1260734578
     20  N        -1.0671413858    2.9650590326    0.2246945254
     21  C        -2.9696025821    1.4716088545    0.0200928077
     22  C        -4.6171035732   -0.4612696819   -0.2341583684
     23  C        -1.9534552519    3.9079335503    0.3140872932
[...]
     39  H        -7.3582856799   -2.6072937085    0.2874839564
   Point Group: c1    Number of degrees of freedom:   111


   Energy is  -2291.147887796

              Constraints and their Current Values
                                        Value     Constraint
   Dihedral:        4   6   7   8       21.822       21.822
   Dihedral:       10  13  16  17      169.064      169.064
   Dihedral:       17  19  22  25     -120.000     -120.000
 Hessian Updated using BFGS Update

102 Hessian modes will be used to form the next step
  Hessian Eigenvalues:
     0.009151    0.015722    0.040590    0.045000    0.045000    0.045000
     0.045000    0.045000    0.045001    0.045001    0.045001    0.045001
     0.045002    0.045002    0.045002    0.045003    0.045003    0.045003
     0.045006    0.045008    0.045020    0.045030    0.045046    0.045184
     0.045308    0.045617    0.050291    0.154967    0.159711    0.159974
     0.159996    0.160000    0.160004    0.160013    0.160094    0.160142
     0.160416    0.219967    0.221543    0.223882    0.224275    0.232683
     0.235669    0.243337    0.244338    0.246726    0.247379    0.249757
     0.249900    0.249952    0.249972    0.249982    0.249987    0.250070
     0.251487    0.256733    0.298974    0.317389    0.323069    0.332343
     0.335719    0.342298    0.354147    0.354553    0.355798    0.357208
     0.359039    0.360696    0.360965    0.361972    0.364167    0.364687
     0.369867    0.373915    0.377375    0.384403    0.402446    0.405866
     0.417259    0.424852    0.432697    0.439218    0.458956    0.461152
     0.473355    0.474859    0.480052    0.481549    0.485569    0.486854
     0.504518    0.513401    0.523401    0.527302    0.558643    0.572644
     0.589622    0.596753    0.640184    0.651559    0.662300    0.706262

 Minimum Search - Taking Simple RFO Step
 Searching for Lamda that Minimizes Along All modes
 Value Taken    Lamda =   0.00000000
 Step Taken.  Stepsize is  0.004008

                             Maximum     Tolerance    Cnvgd?
         Gradient           0.000134      0.000300     YES
         Displacement       0.001353      0.001200      NO
         Energy change     -0.000001      0.000001     YES

 Final energy is   -2291.14788779629     


 ******************************
 **  OPTIMIZATION CONVERGED  **
 ******************************

                       Coordinates (Angstroms)
     ATOM                X               Y               Z
      1  C         7.6754998731    0.3189551420   -0.2506256013
      2  C         7.0217752524    1.4624945268    0.1782272210
      3  C         6.9110231990   -0.7901463944   -0.5754210200
      4  C         5.6436443513    1.4498121929    0.2666856785
      5  N         5.5878821732   -0.8189621118   -0.4886094760
      6  C         4.9652134743    0.2801556501   -0.0691394346
      7  C         3.4824391863    0.2500415154   -0.0051115674
      8  N         2.8571811111    1.3927331315   -0.0652014941
      9  C         2.7190842102   -0.9546265356    0.1338939226
     10  C         1.5033717780    1.4717548182   -0.0458574131
     11  N         3.1676158823   -2.2013766471    0.2928419754
     12  C         1.2899423865   -0.8659764523    0.1517877082
     13  C         0.6429868740    0.4030805763    0.0458127436
     14  S         1.8745339066   -3.1391021351    0.4238311898
     15  N         0.6947042974   -2.0486017529    0.3008067262
     16  C        -0.8064994067    0.5548312397    0.0380416899
     17  S        -1.8706159049   -0.7851368482   -0.1234585225
     18  C        -1.5678217084    1.7211990796    0.1163016790
     19  C        -3.2963234054    0.1432753739   -0.0664823016
     20  N        -1.0831479694    2.9890612820    0.2497120338
     21  C        -2.9776543188    1.4847789211    0.0536002818
     22  C        -4.6126172098   -0.4559146406   -0.2136024438
     23  C        -1.9726379843    3.9308655607    0.3071804240
     24  N        -3.8851389994    2.4980711306    0.1197590301
     25  C        -5.5504332517   -0.1873882402   -1.1670814848
     26  S        -5.1492532998   -1.7278062757    0.8284047903
     27  C        -3.3806746408    3.6858189136    0.2414505651
     28  C        -6.7067585746   -0.9966750784   -1.0515104717
     29  C        -6.6271970781   -1.8792824523   -0.0202377408
     30  H         8.7522407839    0.2839554463   -0.3372069330
     31  H         7.5790647238    2.3517646601    0.4396829191
     32  H         7.3825728756   -1.6998495132   -0.9288550698
     33  H         5.0837033449    2.3158680761    0.5841623949
     34  H         1.1015900439    2.4706528070   -0.1073193211
     35  H        -1.6151374650    4.9494469688    0.4127056366
     36  H        -5.4057755626    0.5707967229   -1.9209717322
     37  H        -4.0681114758    4.5225602174    0.2999111424
     38  H        -7.5587782102   -0.9287712364   -1.7102782936
     39  H        -7.3582856799   -2.6072937085    0.2874839564

Z-matrix Print:
$molecule
0 1
S 
C  1 1.702304
C  2 1.384053 1 109.797115
N  3 1.361861 2 124.887455 1 -179.677046 0
C  4 1.296163 3 115.279297 2 -179.482801 0
H  5 1.084492 4 117.734351 3 179.876062 0
C  5 1.430712 4 122.976388 3 0.186236 0
H  7 1.084643 5 119.320359 4 179.788536 0
N  7 1.296723 5 123.274287 4 -0.060403 0
C  9 1.363885 7 115.832072 5 -0.183444 0
C  10 1.395045 9 126.069785 7 179.785180 0
C  2 1.453720 1 122.016255 3 -176.531675 0
C  12 1.364085 2 127.742457 1 119.999997 0
H  13 1.078944 12 122.314016 2 2.745705 0
C  13 1.416118 12 113.068770 2 -177.420622 0
H  15 1.079131 13 123.980927 12 -179.686369 0
C  15 1.359724 13 112.648252 12 0.636531 0
H  17 1.076654 15 128.021245 13 179.795490 0
C  11 1.457429 10 129.014299 9 1.601162 0
C  19 1.375038 11 122.753663 10 9.132540 0
H  20 1.078426 19 119.377549 11 -1.227282 0
N  20 1.356252 19 125.468694 11 178.894154 0
C  22 1.303957 20 121.941060 19 -0.488093 0
C  19 1.428386 11 122.912840 10 -170.739564 0
N  24 1.332335 19 126.481930 11 2.451159 0
C  24 1.432000 19 120.404225 11 -179.059177 0
N  26 1.334478 24 113.065782 19 -177.610576 0
C  23 1.484462 22 117.335391 20 -178.457955 0
N  28 1.331064 23 117.652469 22 156.261848 0
C  29 1.326299 28 117.993446 23 -178.600721 0
H  30 1.083898 29 115.920422 28 179.475338 0
C  30 1.385649 29 123.534879 28 -0.150793 0
H  32 1.080783 30 120.327936 29 -179.760948 0
C  32 1.385263 30 118.226356 29 0.505483 0
H  34 1.081541 32 120.692101 30 179.849080 0
C  34 1.381025 32 118.892878 30 -0.131205 0
H  36 1.079064 34 121.958246 32 179.308799 0
S  27 1.602669 26 106.570157 24 -0.836329 0
S  17 1.710981 15 111.670142 13 -0.406525 0
$end

 
 --------------------------------------------------------------
 
                    Orbital Energies (a.u.)
 --------------------------------------------------------------
 
 Alpha MOs
 -- Occupied --
-89.146 -89.099 -89.079 -14.483 -14.479 -14.461 -14.460 -14.445
-14.434 -10.355 -10.352 -10.351 -10.345 -10.343 -10.342 -10.340
-10.340 -10.337 -10.336 -10.332 -10.330 -10.326 -10.324 -10.318
-10.310 -10.301 -10.298 -10.295 -10.295  -8.156  -8.113  -8.094
 -6.107  -6.101  -6.100  -6.062  -6.058  -6.057  -6.043  -6.040
 -6.037  -1.143  -1.100  -1.069  -1.049  -1.028  -1.013  -1.003
 -0.986  -0.925  -0.912  -0.896  -0.878  -0.868  -0.853  -0.839
 -0.811  -0.777  -0.771  -0.748  -0.738  -0.730  -0.716  -0.710
 -0.671  -0.656  -0.647  -0.629  -0.628  -0.620  -0.608  -0.604
 -0.586  -0.576  -0.568  -0.561  -0.558  -0.546  -0.543  -0.527
 -0.512  -0.507  -0.500  -0.498  -0.493  -0.492  -0.485  -0.481
 -0.475  -0.468  -0.463  -0.461  -0.449  -0.440  -0.429  -0.426
 -0.420  -0.411  -0.393  -0.376  -0.371  -0.360  -0.357  -0.343
 -0.340  -0.338  -0.335  -0.333  -0.320  -0.272
 -- Virtual --
 -0.053  -0.022   0.025   0.036   0.042   0.051   0.069   0.074
  0.083   0.093   0.109   0.117   0.122   0.125   0.128   0.133
  0.151   0.154   0.158   0.164   0.173   0.175   0.179   0.187
  0.195   0.202   0.210   0.216   0.224   0.232   0.241   0.246
  0.258   0.262   0.268   0.275   0.279   0.287   0.289   0.292
  0.300   0.302   0.305   0.313   0.317   0.322   0.323   0.330
  0.335   0.339   0.342   0.346   0.348   0.350   0.353   0.360
  0.362   0.368   0.372   0.373   0.380   0.385   0.386   0.389
  0.390   0.393   0.395   0.397   0.401   0.403   0.411   0.411
  0.415   0.418   0.422   0.426   0.429   0.432   0.433   0.438
  0.443   0.444   0.448   0.454   0.457   0.461   0.462   0.467
  0.470   0.474   0.476   0.479   0.482   0.483   0.488   0.490
  0.495   0.502   0.504   0.508   0.511   0.515   0.517   0.522
  0.525   0.531   0.532   0.537   0.540   0.542   0.545   0.548
  0.556   0.563   0.569   0.574   0.578   0.583   0.592   0.596
  0.598   0.603   0.608   0.612   0.618   0.625   0.631   0.637
  0.640   0.645   0.647   0.655   0.662   0.665   0.668   0.672
  0.677   0.680   0.683   0.688   0.698   0.706   0.714   0.716
  0.719   0.726   0.728   0.735   0.739   0.747   0.749   0.758
  0.760   0.764   0.768   0.772   0.777   0.779   0.783   0.791
  0.793   0.795   0.800   0.807   0.809   0.811   0.824   0.825
  0.828   0.833   0.838   0.844   0.845   0.848   0.851   0.855
  0.862   0.866   0.871   0.873   0.882   0.885   0.892   0.895
  0.905   0.911   0.917   0.922   0.926   0.930   0.934   0.939
  0.945   0.948   0.951   0.953   0.956   0.961   0.970   0.973
  0.982   0.983   0.986   0.989   0.999   1.002   1.006   1.015
  1.023   1.029   1.033   1.039   1.047   1.050   1.056   1.060
  1.066   1.072   1.076   1.080   1.085   1.089   1.097   1.098
  1.103   1.107   1.108   1.116   1.126   1.132   1.139   1.144
  1.153   1.156   1.162   1.169   1.174   1.182   1.190   1.199
  1.202   1.210   1.215   1.219   1.234   1.238   1.247   1.249
  1.260   1.263   1.271   1.274   1.287   1.289   1.295   1.298
  1.304   1.314   1.322   1.325   1.339   1.342   1.350   1.355
  1.360   1.366   1.370   1.374   1.377   1.383   1.386   1.392
  1.394   1.397   1.416   1.420   1.426   1.426   1.431   1.442
  1.445   1.447   1.451   1.461   1.468   1.478   1.479   1.482
  1.488   1.497   1.502   1.507   1.509   1.515   1.523   1.537
  1.538   1.559   1.564   1.572   1.574   1.582   1.586   1.591
  1.601   1.613   1.621   1.623   1.629   1.638   1.643   1.646
  1.656   1.662   1.663   1.671   1.686   1.694   1.696   1.699
  1.708   1.712   1.720   1.724   1.734   1.739   1.744   1.744
  1.755   1.765   1.777   1.779   1.785   1.799   1.805   1.808
  1.817   1.831   1.846   1.854   1.865   1.880   1.885   1.891
  1.893   1.898   1.908   1.916   1.926   1.935   1.943   1.952
  1.966   1.969   1.972   1.983   1.985   1.990   2.003   2.011
  2.015   2.021   2.034   2.039   2.043   2.048   2.056   2.067
  2.075   2.090   2.094   2.107   2.109   2.114   2.124   2.136
  2.143   2.153   2.160   2.168   2.177   2.184   2.197   2.201
  2.202   2.215   2.218   2.226   2.228   2.247   2.256   2.260
  2.269   2.274   2.280   2.291   2.295   2.298   2.313   2.314
  2.322   2.327   2.340   2.343   2.349   2.365   2.366   2.371
  2.377   2.385   2.389   2.397   2.404   2.407   2.415   2.428
  2.436   2.446   2.451   2.456   2.461   2.473   2.476   2.479
  2.494   2.504   2.506   2.514   2.521   2.526   2.529   2.536
  2.539   2.541   2.545   2.555   2.557   2.562   2.572   2.589
  2.603   2.612   2.629   2.632   2.636   2.645   2.657   2.663
  2.664   2.674   2.676   2.681   2.692   2.697   2.715   2.726
  2.733   2.736   2.739   2.746   2.753   2.765   2.776   2.782
  2.786   2.790   2.791   2.796   2.809   2.812   2.820   2.826
  2.831   2.839   2.846   2.854   2.869   2.876   2.878   2.880
  2.891   2.894   2.898   2.911   2.918   2.921   2.926   2.933
  2.938   2.945   2.947   2.953   2.956   2.971   2.977   2.979
  2.983   2.992   3.001   3.003   3.006   3.010   3.016   3.021
  3.023   3.031   3.037   3.043   3.051   3.057   3.060   3.062
  3.065   3.066   3.070   3.076   3.081   3.084   3.088   3.089
  3.091   3.101   3.104   3.106   3.118   3.122   3.129   3.131
  3.142   3.145   3.148   3.154   3.159   3.163   3.166   3.171
  3.173   3.178   3.184   3.189   3.195   3.199   3.199   3.208
  3.211   3.214   3.221   3.225   3.226   3.228   3.236   3.241
  3.243   3.250   3.252   3.258   3.261   3.265   3.267   3.276
  3.278   3.287   3.289   3.291   3.295   3.296   3.303   3.307
  3.313   3.317   3.318   3.329   3.331   3.339   3.340   3.342
  3.349   3.360   3.365   3.375   3.382   3.385   3.388   3.391
  3.398   3.404   3.408   3.414   3.417   3.422   3.428   3.435
  3.440   3.442   3.453   3.456   3.464   3.470   3.475   3.483
  3.486   3.492   3.495   3.496   3.507   3.516   3.516   3.520
  3.528   3.531   3.538   3.546   3.561   3.568   3.573   3.586
  3.590   3.601   3.607   3.616   3.620   3.629   3.631   3.643
  3.661   3.668   3.674   3.684   3.689   3.694   3.699   3.708
  3.713   3.717   3.728   3.732   3.740   3.747   3.748   3.763
  3.764   3.773   3.779   3.786   3.792   3.796   3.803   3.810
  3.820   3.830   3.836   3.843   3.855   3.860   3.876   3.881
  3.887   3.893   3.904   3.912   3.919   3.922   3.927   3.933
  3.934   3.936   3.946   3.950   3.961   3.963   3.968   3.978
  3.986   3.995   3.997   4.007   4.019   4.022   4.032   4.036
  4.044   4.056   4.068   4.071   4.080   4.089   4.092   4.099
  4.105   4.109   4.119   4.132   4.147   4.156   4.167   4.172
  4.179   4.184   4.196   4.201   4.204   4.207   4.219   4.224
  4.231   4.239   4.245   4.251   4.255   4.261   4.268   4.276
  4.288   4.295   4.300   4.313   4.321   4.321   4.331   4.336
  4.341   4.348   4.359   4.363   4.370   4.377   4.388   4.396
  4.407   4.410   4.422   4.430   4.438   4.441   4.446   4.447
  4.468   4.485   4.494   4.497   4.519   4.525   4.529   4.536
  4.550   4.552   4.566   4.569   4.580   4.589   4.592   4.611
  4.629   4.635   4.639   4.651   4.659   4.668   4.687   4.690
  4.709   4.717   4.723   4.737   4.763   4.765   4.774   4.795
  4.799   4.802   4.810   4.816   4.829   4.840   4.847   4.865
  4.871   4.876   4.884   4.893   4.900   4.914   4.918   4.935
  4.937   4.949   4.952   4.968   4.974   4.980   4.987   4.989
  4.993   5.005   5.009   5.013   5.023   5.040   5.046   5.053
  5.070   5.080   5.094   5.104   5.109   5.117   5.119   5.125
  5.134   5.138   5.148   5.155   5.168   5.176   5.180   5.189
  5.210   5.213   5.242   5.258   5.266   5.306   5.309   5.312
  5.323   5.343   5.351   5.373   5.379   5.402   5.419   5.427
  5.452   5.465   5.476   5.491   5.493   5.501   5.515   5.548
  5.554   5.563   5.578   5.589   5.598   5.606   5.614   5.648
  5.676   5.697   5.719   5.722   5.746   5.752   5.759   5.790
  5.795   5.827   5.838   5.860   5.872   5.889   5.914   5.924
  5.947   5.964   6.011   6.026   6.065   6.084   6.132   6.181
  6.200   6.242   6.250   6.269   6.307   6.357   6.383   6.406
  6.446   6.489   6.618   6.874   6.985   7.078   8.092   8.954
  9.785  10.078  10.646  11.140  11.331  11.582  12.003  12.106
 12.397  12.640  12.792  12.856  12.876  13.000  13.065  13.191
 13.329  13.422  13.494  14.070  14.258  14.661  15.066  15.100
 --------------------------------------------------------------
 
          Ground-State Mulliken Net Atomic Charges

     Atom                 Charge (a.u.)
  ----------------------------------------
      1 C                    -0.092381
      2 C                    -0.129091
      3 C                    -0.080269
      4 C                    -0.118437
      5 N                    -0.145557
      6 C                     0.083115
      7 C                     0.099276
      8 N                    -0.177240
      9 C                    -0.018072
     10 C                    -0.082580
     11 N                    -0.217678
     12 C                     0.053673
     13 C                     0.056283
     14 S                     0.405703
     15 N                    -0.305629
     16 C                    -0.066703
     17 S                     0.210096
     18 C                     0.045135
     19 C                    -0.089882
     20 N                    -0.169309
     21 C                     0.045687
     22 C                    -0.022502
     23 C                    -0.049211
     24 N                    -0.135838
     25 C                    -0.140623
     26 S                     0.119659
     27 C                    -0.049251
     28 C                    -0.149374
     29 C                    -0.184397
     30 H                     0.132996
     31 H                     0.120281
     32 H                     0.119315
     33 H                     0.137629
     34 H                     0.138500
     35 H                     0.128055
     36 H                     0.133663
     37 H                     0.131392
     38 H                     0.129654
     39 H                     0.133911
  ----------------------------------------
  Sum of atomic charges =     0.000000

 -----------------------------------------------------------------
                    Cartesian Multipole Moments
 -----------------------------------------------------------------
    Charge (ESU x 10^10)
                 0.0000
    Dipole Moment (Debye)
         X      -0.0091      Y       1.2714      Z      -0.0589
       Tot       1.2728
    Quadrupole Moments (Debye-Ang)
        XX    -153.9243     XY       4.9073     YY    -166.5242
        XZ       5.6370     YZ       0.1324     ZZ    -183.7945
    Octopole Moments (Debye-Ang^2)
       XXX     139.4147    XXY      -2.2128    XYY     -32.5791
       YYY      38.7215    XXZ     -34.5354    XYZ      15.9668
       YYZ      10.6854    XZZ     -13.5554    YZZ      -6.6774
       ZZZ     -15.6334
    Hexadecapole Moments (Debye-Ang^3)
      XXXX  -16192.8959   XXXY     704.3262   XXYY   -3570.1609
      XYYY    -200.9677   YYYY   -3369.1067   XXXZ     143.4258
      XXYZ      32.7030   XYYZ     -34.2184   YYYZ      33.5521
      XXZZ   -3336.4093   XYZZ     -28.3471   YYZZ    -725.6670
      XZZZ       1.4383   YZZZ       6.2040   ZZZZ    -420.3238
 -----------------------------------------------------------------
Archival summary:
1\1\mn214\OPT\ProcedureUnspecified\BasisUnspecified\362010\afmv_a\SatJun1703:09:532017SatJun1703:09:532017\0\\#,OPT,ProcedureUnspecified,BasisUnspecified,\\0,1\S\C,1,1.7023\C,2,1.38405,1,109.797\N,3,1.36186,2,124.887,1,-179.677,0\C,4,1.29616,3,115.279,2,-179.483,0\H,5,1.08449,4,117.734,3,179.876,0\C,5,1.43071,4,122.976,3,0.186236,0\H,7,1.08464,5,119.32,4,179.789,0\N,7,1.29672,5,123.274,4,-0.060403,0\C,9,1.36388,7,115.832,5,-0.183444,0\C,10,1.39504,9,126.07,7,179.785,0\C,2,1.45372,1,122.016,3,-176.532,0\C,12,1.36408,2,127.742,1,120,0\H,13,1.07894,12,122.314,2,2.7457,0\C,13,1.41612,12,113.069,2,-177.421,0\H,15,1.07913,13,123.981,12,-179.686,0\C,15,1.35972,13,112.648,12,0.636531,0\H,17,1.07665,15,128.021,13,179.795,0\C,11,1.45743,10,129.014,9,1.60116,0\C,19,1.37504,11,122.754,10,9.13254,0\H,20,1.07843,19,119.378,11,-1.22728,0\N,20,1.35625,19,125.469,11,178.894,0\C,22,1.30396,20,121.941,19,-0.488093,0\C,19,1.42839,11,122.913,10,-170.74,0\N,24,1.33234,19,126.482,11,2.45116,0\C,24,1.432,19,120.404,11,-179.059,0\N,26,1.33448,24,113.066,19,-177.611,0\C,23,1.48446,22,117.335,20,-178.458,0\N,28,1.33106,23,117.652,22,156.262,0\C,29,1.3263,28,117.993,23,-178.601,0\H,30,1.0839,29,115.92,28,179.475,0\C,30,1.38565,29,123.535,28,-0.150793,0\H,32,1.08078,30,120.328,29,-179.761,0\C,32,1.38526,30,118.226,29,0.505483,0\H,34,1.08154,32,120.692,30,179.849,0\C,34,1.38103,32,118.893,30,-0.131205,0\H,36,1.07906,34,121.958,32,179.309,0\S,27,1.60267,26,106.57,24,-0.836329,0\S,17,1.71098,15,111.67,13,-0.406525,0\\\@

 Total job time:  7405.86s(wall), 110617.19s(cpu) 
 Sat Jun 17 03:09:53 2017

        *************************************************************
        *                                                           *
        *  Thank you very much for using Q-Chem.  Have a nice day.  *
        *                                                           *
        *************************************************************


