
Running Job 1 of 1 C169_3/C169_90.qcin
qchem C169_3/C169_90.qcin_29799.0 /tmpu/cab_g/afmv_a/scratch_qchem/qchem29799/ 1
/tmpu/appuserlic/qchem4.4/serial-multicore/exe/qcprog.exe_s C169_3/C169_90.qcin_29799.0 /tmpu/cab_g/afmv_a/scratch_qchem/qchem29799/
Check license passed

                  Welcome to Q-Chem
     A Quantum Leap Into The Future Of Chemistry


 Q-Chem 4.4, Q-Chem, Inc., Pleasanton, CA (2016)

 Y. Shao,  Z. Gan,  E. Epifanovsky,  A. T. B. Gilbert,  M. Wormit,  
 J. Kussmann,  A. W. Lange,  A. Behn,  J. Deng,  X. Feng,  D. Ghosh,  
 M. Goldey,  P. R. Horn,  L. D. Jacobson,  I. Kaliman,  F. Rob,  
 R. Z. Khaliullin,  T. Kus,  A. Landau,  J. Liu,  E. I. Proynov,  Y. M. Rhee,  
 R. M. Richard,  M. A. Rohrdanz,  R. P. Steele,  E. J. Sundstrom,  
 H. L. Woodcock III,  P. M. Zimmerman,  D. Zuev,  B. Albrecht,  E. Alguire,  
 B. Austin,  S. A. Baeppler,  G. J. O. Beran,  Y. A. Bernard,  E. Berquist,  
 K. Brandhorst,  K. B. Bravaya,  S. T. Brown,  D. Casanova,  C.-M. Chang,  
 Y. Chen,  S. H. Chien,  K. D. Closser,  M. P. Coons,  D. L. Crittenden,  
 S. Dasgupta,  M. Diedenhofen,  R. A. DiStasio Jr.,  H. Do,  A. D. Dutoi,  
 R. G. Edgar,  P.-T. Fang,  S. Fatehi,  Q. Feng,  L. Fusti-Molnar,  
 A. Ghysels,  A. Golubeva-Zadorozhnaya,  J. Gomes,  A. Gunina,  
 M. W. D. Hanson-Heine,  P. H. P. Harbach,  A. W. Hauser,  J. E. Herr,  
 E. G. Hohenstein,  Z. C. Holden,  K. Hui,  T.-C. Jagau,  H. Ji,  B. Kaduk,  
 K. Khistyaev,  Jaehoon Kim,  Jihan Kim,  R. A. King,  P. Klunzinger,  
 K. Koh,  D. Kosenkov,  T. Kowalczyk,  C. M. Krauter,  A. Kunitsa,  
 K. U. Lao,  A. Laurent,  K. V. Lawler,  J. Lee,  D. Lefrancois,  S. Lehtola,  
 S. V. Levchenko,  C. Y. Lin,  Y.-S. Lin,  F. Liu,  E. Livshits,  
 R. C. Lochan,  A. Luenser,  P. Manohar,  S. F. Manzer,  S.-P. Mao,  Y. Mao,  
 N. Mardirossian,  A. V. Marenich,  L. A. Martinez-Martinez,  S. A. Maurer,  
 N. J. Mayhall,  J.-M. Mewes,  A. F. Morrison,  K. Nanda,  T. S. Nguyen-Beck,  
 C. M. Oana,  R. Olivares-Amaya,  D. P. O'Neill,  J. A. Parkhill,  
 T. M. Perrine,  R. Peverati,  P. A. Pieniazek,  F. Plasser,  A. Prociuk,  
 D. R. Rehn,  E. Rosta,  N. J. Russ,  N. Sergueev,  S. M. Sharada,  
 S. Sharma,  D. W. Small,  A. Sodt,  T. Stauch,  T. Stein,  D. Stuck,  
 Y.-C. Su,  A. J. W. Thom,  T. Tsuchimochi,  L. Vogt,  O. Vydrov,  T. Wang,  
 M. A. Watson,  J. Wenzel,  A. White,  C. F. Williams,  V. Vanovschi,  
 K. Yao,  S. Yeganeh,  S. R. Yost,  Z.-Q. You,  I. Y. Zhang,  X. Zhang,  
 Y. Zhao,  B. R. Brooks,  G. K. L. Chan,  D. M. Chipman,  C. J. Cramer,  
 W. A. Goddard III,  M. S. Gordon,  W. J. Hehre,  A. Klamt,  
 H. F. Schaefer III,  M. W. Schmidt,  C. D. Sherrill,  D. G. Truhlar,  
 A. Warshel,  X. Xu,  A. Aspuru-Guzik,  R. Baer,  A. T. Bell,  N. A. Besley,  
 J.-D. Chai,  A. Dreuw,  B. D. Dunietz,  T. R. Furlani,  S. R. Gwaltney,  
 C.-P. Hsu,  Y. Jung,  J. Kong,  D. S. Lambrecht,  W. Liang,  C. Ochsenfeld,  
 V. A. Rassolov,  L. V. Slipchenko,  J. E. Subotnik,  T. Van Voorhis,  
 J. M. Herbert,  A. I. Krylov,  P. M. W. Gill,  M. Head-Gordon

 Contributors to earlier versions of Q-Chem not listed above: 
 R. D. Adamson,  J. Baker,  E. F. C. Byrd,  A. K. Chakraborty,  C.-L. Cheng,  
 H. Dachsel,  R. J. Doerksen,  G. Hawkins,  A. Heyden,  S. Hirata,  
 G. Kedziora,  F. J. Keil,  C. Kelley,  P. P. Korambath,  W. Kurlancheek,  
 A. M. Lee,  M. S. Lee,  D. Liotard,  I. Lotan,  P. E. Maslen,  N. Nair,  
 D. Neuhauser,  R. Olson,  B. Peters,  J. Ritchie,  N. E. Schultz,  
 N. Shenvi,  A. C. Simmonett,  K. S. Thanthiriwatte,  Q. Wu,  W. Zhang

 Please cite Q-Chem as follows:
 Y. Shao et al., Mol. Phys. 113, 184-215 (2015)
 DOI: 10.1080/00268976.2014.952696

 Q-Chem 4.4.2 for Intel X86 Linux

 Parts of Q-Chem use Armadillo 5.200.1 (Boston Tea Smuggler).
 http://arma.sourceforge.net/

 Q-Chem begins on Sat Jun 17 09:16:22 2017  

Host: 
0

     Scratch files written to /tmpu/cab_g/afmv_a/scratch_qchem/qchem29799//
 Dec716 11556_ 22328  22283 4050   
Processing $rem in /tmpu/appuserlic/qchem4.4/serial-multicore/config/preferences.
 MEM_TOTAL  2000 
FILE_GEOM_ORG=        593

Checking the input file for inconsistencies... 	...done.

--------------------------------------------------------------
User input:
--------------------------------------------------------------
$comment
OPTIMIZATION
$end

$rem
JOBTYPE OPT
EXCHANGE omegaB97X-D
BASIS cc-pVTZ
$end

$molecule
0 1
C          0.00000        0.00000        0.00000
C         -0.65396       -1.22126       -0.00000
C          1.38563        0.00000        0.00000
C          0.09526       -2.37957        0.00866
N          2.11912       -1.10562        0.01199
C          1.48546       -2.27640        0.02149
C          2.30642       -3.51253        0.03449
N          1.74513       -4.60745       -0.39909
C          3.65824       -3.56714        0.50995
C          2.40434       -5.79109       -0.42442
N          4.38617       -2.58332        1.04242
C          4.35289       -4.81920        0.47143
C          3.70163       -5.99343       -0.01477
S          5.80914       -3.21778        1.41887
N          5.59255       -4.74484        0.95148
C          4.33823       -7.30129       -0.04468
S          6.02589       -7.51949        0.20234
C          3.75434       -8.55173       -0.24928
C          5.99762       -9.21427        0.01351
N          2.43078       -8.79033       -0.46746
C          4.69159       -9.63209       -0.21260
C          7.19111      -10.02404        0.10954
C          2.09912      -10.03238       -0.63993
N          4.30733      -10.92364       -0.39820
C          7.72074      -10.60997        1.22637
S          8.16099      -10.38553       -1.28242
C          3.03978      -11.10696       -0.60697
C          8.90780      -11.33419        0.96242
C          9.26941      -11.29609       -0.34744
H         -0.54853        0.93120        0.00000
H         -1.73532       -1.26909       -0.00410
H          1.93662        0.93286       -0.01167
H         -0.36319       -3.35650        0.00329
H          1.82722       -6.62671       -0.78554
H          1.05088      -10.24576       -0.82054
H          7.25713      -10.52152        2.19439
H          2.69937      -12.12548       -0.75876
H          9.46869      -11.85593        1.72283
H         10.12258      -11.75922       -0.81282
$end

$opt
CONSTRAINT
tors 4 6 7 8 21.82164
tors 10 13 16 17 169.06444
tors 17 19 22 25 90.00000
ENDCONSTRAINT
$end
--------------------------------------------------------------
 ----------------------------------------------------------------
             Standard Nuclear Orientation (Angstroms)
    I     Atom           X                Y                Z
 ----------------------------------------------------------------
    1      C       7.6955635499     0.4017642615    -0.2641138405
    2      C       6.9993639737     1.5579826487     0.0483039252
    3      C       6.9691459070    -0.7496212838    -0.5221821087
    4      C       5.6214173894     1.5145640266     0.0979596819
    5      N       5.6443947228    -0.8072083949    -0.4745906268
    6      C       4.9808451551     0.3045288649    -0.1646175789
    7      C       3.4992374517     0.2395042911    -0.1119666844
    8      N       2.8462306480     1.3595055762    -0.2571118617
    9      C       2.7613148017    -0.9706299866     0.1059942493
   10      C       1.4926894277     1.4117580489    -0.2197096317
   11      N       3.2360214415    -2.1971135550     0.3333702393
   12      C       1.3305048841    -0.9103246868     0.1346806040
   13      C       0.6552815076     0.3368774023    -0.0323716667
   14      S       1.9638780517    -3.1516181329     0.5325433337
   15      N       0.7612752431    -2.0930782535     0.3578530576
   16      C      -0.7922578148     0.4713500456     0.0241877356
   17      S      -1.8537051998    -0.8808717146    -0.0164589881
   18      C      -1.5574329731     1.6331482850     0.1296425297
   19      C      -3.2876341076     0.0384102050     0.0701657772
   20      N      -1.0744620067     2.9051085027     0.2017521429
   21      C      -2.9666196608     1.3876395909     0.1592917243
   22      C      -4.5987879366    -0.5700597870     0.0674272724
   23      C      -1.9635663276     3.8453865683     0.2900874417
   24      N      -3.8707384729     2.3996188641     0.2524133355
   25      C      -5.3344749654    -0.9844993766     1.1435943473
   26      S      -5.4652492845    -0.8601217768    -1.4070230153
   27      C      -3.3697579529     3.5950378745     0.3145908707
   28      C      -6.5825191406    -1.5440566435     0.7795104887
   29      C      -6.7871508406    -1.5489146172    -0.5643826950
   30      H       8.7753886554     0.3902999876    -0.3072984785
   31      H       7.5254258332     2.4815214766     0.2531915086
   32      H       7.4735361330    -1.6727576098    -0.7817274265
   33      H       5.0304010046     2.3870126752     0.3306192028
   34      H       1.0712180926     2.3973889190    -0.3320912800
   35      H      -1.6021134811     4.8668878202     0.3434271670
   36      H      -4.9810910387    -0.8762470576     2.1551385088
   37      H      -4.0633479770     4.4254532574     0.3897263008
   38      H      -7.2928994293    -1.9310391605     1.4940998566
   39      H      -7.6453198665    -1.9136378878    -1.1024253041
 ----------------------------------------------------------------
 Molecular Point Group                 C1    NOp =  1
 Largest Abelian Subgroup              C1    NOp =  1
 Nuclear Repulsion Energy =  2922.5834717061 hartrees
 There are      110 alpha and      110 beta electrons
 Requested basis set is cc-pVTZ
 There are 356 shells and 1022 basis functions

 Total QAlloc Memory Limit   2000 MB
 Mega-Array Size        61 MB
 MEM_STATIC part        62 MB
 A cutoff of  1.0D-11 yielded  30909 shell pairs
 There are    243829 function pairs (    318314 Cartesian)
 
 -------------------------------------------------------
 OpenMP Integral Computing Module                       
 Release: version 1.0, May 2013, Q-Chem Inc. Pittsburgh 
 -------------------------------------------------------
 Integral Job Info:
 Integral job number is                      11
 Integral operator is                         1
 short-range coefficients              22203600
 long-range coefficients              100000000
 Omega coefficients                         200
 if combine SR and LR in K                    1
 Integral screening is                        0
 Integral computing path is                   2
 max size of driver memory is            800000
 size of driver memory is                776718
 size of scratch memory is             26248924
 max col of scratch BK array              10000
 max len of scratch array in speh3          662
 max len of scratch index in speh4           32
 max int batch size is                      520
 min int batch size is                       52
 fixed nKL is                                52
 max L of basis functions is                  3
 order of int derivative is                   0
 number of shells is                        356
 number of basis is                        1177
 number of cartesian basis is              1177
 number of contracted shell pairs         30909
 number of primitive shell pairs          93557
 maxK2 (contraction) of shell pair          121
 max number of K2 of shell pair               1
 max number of CS2 of shell pair           4275
 max number of PS2 of shell pair          12950
 mem total for path MDJ                  837060
 -------------------------------------------------------
 Smallest overlap matrix eigenvalue = 2.91E-05

 Scale SEOQF with 1.000000e-02/1.000000e-01/1.000000e-01

 Standard Electronic Orientation quadrupole field applied
 Nucleus-field energy     =     0.0000000585 hartrees
 Guess from superposition of atomic densities
 Warning:  Energy on first SCF cycle will be non-variational
 Long-range K will be added via erf
 Coulomb attenuation parameter = 0.2 bohr**(-1)
 A restricted hybrid HF-DFT SCF calculation will be
 performed using Pulay DIIS extrapolation
 Exchange:     0.2220 Hartree-Fock + 1.0000 wB97X-D + LR-HF
 Correlation:  1.0000 wB97X-D
 Using SG-2 standard quadrature grid
 Dispersion:   Grimme D
 SCF converges when DIIS error is below 1.0E-08
 using 16 threads for integral computing 
 using 16 threads for integral computing 
 K construction time:  CPU 70.69 s  wall 4.68 s
 -------------------------------------------------------
 OpenMP BLAS3 based DFT computing Module                
 Release: version 1.0, May 2013, Q-Chem Inc. Pittsburgh 
 -------------------------------------------------------
 ---------------------------------------
  Cycle       Energy         DIIS Error
 ---------------------------------------
    1   -2301.4426970221      1.83E-02
 K construction time:  CPU 1115.72 s  wall 73.80 s
    2   -2290.8993666301      1.32E-03
 K construction time:  CPU 1064.39 s  wall 70.37 s
    3   -2290.9442519638      1.30E-03
 K construction time:  CPU 1015.51 s  wall 67.12 s
    4   -2291.1390267221      2.05E-04
 K construction time:  CPU 943.22 s  wall 62.38 s
    5   -2291.1430250310      1.33E-04
 K construction time:  CPU 895.04 s  wall 59.17 s
    6   -2291.1450492396      4.66E-05
 K construction time:  CPU 835.83 s  wall 55.34 s
    7   -2291.1453263520      1.70E-05
 K construction time:  CPU 779.23 s  wall 51.54 s
    8   -2291.1453745196      5.30E-06
 K construction time:  CPU 749.24 s  wall 49.55 s
    9   -2291.1453847214      3.68E-06
 K construction time:  CPU 709.63 s  wall 46.91 s
   10   -2291.1453882402      1.31E-06
 K construction time:  CPU 645.24 s  wall 42.51 s
   11   -2291.1453887867      7.20E-07
 K construction time:  CPU 609.85 s  wall 40.14 s
   12   -2291.1453889436      2.20E-07
 K construction time:  CPU 534.01 s  wall 35.22 s
   13   -2291.1453889594      1.15E-07
 K construction time:  CPU 477.50 s  wall 31.40 s
   14   -2291.1453889620      3.11E-08
 K construction time:  CPU 393.73 s  wall 25.86 s
   15   -2291.1453889623      1.64E-08
 K construction time:  CPU 1113.14 s  wall 73.61 s
   16   -2291.1453889613      4.77E-09 Convergence criterion met
 ---------------------------------------
 SCF time:  CPU 15930.87 s  wall 1079.84 s
 SCF   energy in the final basis set = -2291.1453889613
 Total energy in the final basis set = -2291.1453889613
 
 --------------------------------------------------------------
 
                    Orbital Energies (a.u.)
 --------------------------------------------------------------
 
 Alpha MOs
 -- Occupied --
-89.147 -89.099 -89.078 -14.483 -14.480 -14.461 -14.459 -14.445
-14.434 -10.355 -10.353 -10.351 -10.344 -10.343 -10.342 -10.340
-10.338 -10.337 -10.337 -10.331 -10.331 -10.327 -10.324 -10.318
-10.310 -10.301 -10.298 -10.296 -10.294  -8.157  -8.114  -8.093
 -6.107  -6.101  -6.101  -6.062  -6.059  -6.058  -6.042  -6.038
 -6.036  -1.144  -1.100  -1.069  -1.049  -1.027  -1.012  -1.002
 -0.985  -0.925  -0.912  -0.896  -0.878  -0.867  -0.853  -0.838
 -0.811  -0.777  -0.770  -0.748  -0.738  -0.730  -0.716  -0.711
 -0.670  -0.657  -0.646  -0.629  -0.628  -0.620  -0.608  -0.604
 -0.586  -0.576  -0.568  -0.561  -0.559  -0.545  -0.543  -0.527
 -0.512  -0.507  -0.500  -0.498  -0.493  -0.492  -0.484  -0.482
 -0.475  -0.468  -0.463  -0.461  -0.448  -0.438  -0.428  -0.425
 -0.420  -0.410  -0.394  -0.376  -0.371  -0.360  -0.357  -0.343
 -0.337  -0.337  -0.333  -0.332  -0.318  -0.279
 -- Virtual --
 -0.053  -0.022   0.025   0.041   0.042   0.051   0.062   0.071
  0.083   0.100   0.103   0.113   0.122   0.124   0.129   0.132
  0.149   0.153   0.158   0.163   0.174   0.175   0.183   0.187
  0.190   0.205   0.208   0.216   0.222   0.230   0.238   0.247
  0.256   0.261   0.271   0.274   0.275   0.284   0.286   0.291
  0.298   0.304   0.307   0.310   0.318   0.322   0.324   0.327
  0.333   0.339   0.341   0.344   0.347   0.349   0.352   0.355
  0.362   0.365   0.371   0.376   0.379   0.382   0.385   0.388
  0.389   0.391   0.393   0.396   0.400   0.401   0.408   0.412
  0.415   0.418   0.420   0.429   0.431   0.434   0.436   0.438
  0.442   0.446   0.447   0.451   0.453   0.458   0.460   0.463
  0.466   0.469   0.474   0.477   0.483   0.489   0.489   0.495
  0.500   0.504   0.507   0.510   0.515   0.515   0.523   0.524
  0.526   0.528   0.532   0.534   0.538   0.542   0.544   0.550
  0.556   0.563   0.567   0.573   0.579   0.581   0.584   0.588
  0.597   0.604   0.607   0.610   0.616   0.625   0.629   0.637
  0.642   0.647   0.649   0.653   0.654   0.663   0.666   0.671
  0.674   0.676   0.687   0.691   0.696   0.703   0.710   0.716
  0.718   0.726   0.729   0.737   0.739   0.742   0.746   0.756
  0.759   0.765   0.765   0.771   0.776   0.778   0.781   0.790
  0.794   0.796   0.799   0.805   0.812   0.818   0.822   0.823
  0.830   0.832   0.835   0.841   0.844   0.848   0.853   0.855
  0.859   0.865   0.870   0.873   0.879   0.883   0.893   0.899
  0.907   0.911   0.914   0.917   0.922   0.924   0.931   0.938
  0.943   0.948   0.950   0.952   0.957   0.960   0.964   0.972
  0.975   0.980   0.986   0.989   1.000   1.002   1.009   1.015
  1.023   1.027   1.029   1.036   1.048   1.052   1.056   1.058
  1.063   1.072   1.079   1.083   1.087   1.091   1.094   1.097
  1.103   1.106   1.107   1.122   1.124   1.130   1.137   1.142
  1.152   1.157   1.161   1.173   1.177   1.185   1.192   1.193
  1.197   1.202   1.215   1.218   1.229   1.235   1.242   1.251
  1.256   1.263   1.266   1.268   1.283   1.288   1.298   1.299
  1.302   1.312   1.318   1.328   1.332   1.343   1.349   1.353
  1.359   1.362   1.365   1.372   1.380   1.382   1.384   1.390
  1.395   1.402   1.412   1.418   1.425   1.428   1.436   1.441
  1.444   1.450   1.452   1.460   1.475   1.478   1.481   1.487
  1.490   1.499   1.505   1.509   1.512   1.516   1.522   1.533
  1.544   1.551   1.565   1.567   1.573   1.584   1.585   1.592
  1.608   1.614   1.617   1.624   1.632   1.638   1.644   1.645
  1.650   1.661   1.667   1.669   1.680   1.690   1.694   1.704
  1.710   1.713   1.721   1.725   1.727   1.739   1.747   1.750
  1.760   1.768   1.780   1.786   1.789   1.798   1.805   1.809
  1.815   1.823   1.840   1.853   1.865   1.876   1.888   1.889
  1.896   1.901   1.915   1.918   1.934   1.936   1.940   1.946
  1.961   1.968   1.976   1.981   1.986   1.990   1.999   2.007
  2.012   2.021   2.030   2.039   2.044   2.054   2.055   2.070
  2.078   2.089   2.103   2.109   2.111   2.116   2.122   2.135
  2.137   2.150   2.158   2.174   2.177   2.183   2.184   2.199
  2.205   2.211   2.216   2.228   2.231   2.244   2.246   2.257
  2.266   2.278   2.291   2.292   2.294   2.301   2.306   2.317
  2.321   2.329   2.332   2.345   2.349   2.361   2.367   2.373
  2.377   2.382   2.387   2.399   2.404   2.407   2.422   2.428
  2.432   2.442   2.449   2.459   2.461   2.468   2.470   2.479
  2.486   2.498   2.499   2.515   2.517   2.521   2.526   2.532
  2.535   2.539   2.545   2.546   2.557   2.563   2.573   2.587
  2.608   2.611   2.629   2.631   2.639   2.643   2.656   2.660
  2.664   2.670   2.679   2.683   2.694   2.701   2.715   2.723
  2.730   2.733   2.747   2.754   2.757   2.766   2.775   2.778
  2.786   2.791   2.795   2.806   2.809   2.815   2.823   2.827
  2.833   2.846   2.856   2.863   2.867   2.873   2.878   2.886
  2.887   2.893   2.900   2.911   2.914   2.921   2.924   2.933
  2.935   2.946   2.948   2.953   2.958   2.962   2.976   2.977
  2.982   2.990   3.003   3.004   3.008   3.011   3.021   3.023
  3.025   3.031   3.035   3.044   3.045   3.054   3.058   3.062
  3.064   3.067   3.070   3.073   3.080   3.082   3.084   3.087
  3.091   3.096   3.102   3.106   3.117   3.121   3.125   3.134
  3.143   3.145   3.151   3.158   3.160   3.165   3.166   3.173
  3.175   3.181   3.188   3.190   3.198   3.198   3.205   3.207
  3.211   3.213   3.219   3.222   3.232   3.234   3.237   3.241
  3.247   3.248   3.252   3.258   3.260   3.266   3.267   3.277
  3.282   3.284   3.286   3.292   3.296   3.298   3.303   3.307
  3.312   3.320   3.321   3.328   3.332   3.335   3.338   3.346
  3.351   3.357   3.360   3.375   3.381   3.388   3.390   3.400
  3.401   3.402   3.406   3.416   3.420   3.426   3.431   3.437
  3.440   3.449   3.455   3.461   3.466   3.469   3.475   3.476
  3.483   3.489   3.497   3.502   3.506   3.510   3.513   3.518
  3.522   3.527   3.537   3.545   3.565   3.566   3.571   3.582
  3.589   3.601   3.609   3.617   3.620   3.625   3.631   3.637
  3.659   3.666   3.667   3.681   3.689   3.693   3.698   3.703
  3.713   3.715   3.721   3.736   3.738   3.741   3.750   3.758
  3.767   3.773   3.778   3.784   3.794   3.802   3.807   3.814
  3.822   3.826   3.834   3.840   3.848   3.856   3.875   3.878
  3.889   3.902   3.905   3.914   3.916   3.920   3.931   3.933
  3.936   3.938   3.939   3.947   3.955   3.960   3.975   3.979
  3.988   3.994   4.003   4.011   4.016   4.020   4.026   4.035
  4.053   4.058   4.064   4.069   4.075   4.087   4.094   4.098
  4.100   4.113   4.122   4.133   4.148   4.151   4.161   4.174
  4.174   4.186   4.191   4.199   4.203   4.208   4.212   4.226
  4.229   4.240   4.243   4.248   4.258   4.262   4.270   4.276
  4.288   4.294   4.298   4.307   4.318   4.323   4.329   4.332
  4.341   4.355   4.358   4.365   4.371   4.374   4.387   4.396
  4.404   4.415   4.429   4.435   4.438   4.440   4.446   4.451
  4.466   4.484   4.488   4.499   4.516   4.524   4.526   4.537
  4.549   4.551   4.564   4.566   4.588   4.592   4.606   4.613
  4.625   4.632   4.644   4.652   4.659   4.673   4.683   4.702
  4.711   4.718   4.731   4.735   4.759   4.765   4.770   4.792
  4.795   4.807   4.812   4.815   4.827   4.836   4.847   4.865
  4.875   4.879   4.888   4.896   4.900   4.911   4.918   4.936
  4.938   4.949   4.950   4.967   4.973   4.983   4.985   4.990
  4.996   5.003   5.005   5.013   5.027   5.039   5.045   5.052
  5.069   5.081   5.092   5.098   5.112   5.113   5.115   5.118
  5.131   5.142   5.150   5.158   5.168   5.179   5.183   5.190
  5.207   5.213   5.240   5.263   5.271   5.302   5.307   5.314
  5.324   5.343   5.350   5.376   5.380   5.401   5.420   5.428
  5.450   5.464   5.478   5.489   5.497   5.499   5.513   5.543
  5.559   5.563   5.576   5.590   5.598   5.609   5.614   5.649
  5.674   5.697   5.719   5.720   5.743   5.753   5.758   5.792
  5.798   5.820   5.838   5.856   5.867   5.889   5.905   5.916
  5.944   5.962   5.997   6.015   6.055   6.087   6.132   6.180
  6.199   6.237   6.252   6.268   6.306   6.355   6.383   6.403
  6.445   6.490   6.601   6.873   6.990   7.078   8.065   8.915
  9.783  10.069  10.657  11.141  11.321  11.617  12.011  12.108
 12.397  12.642  12.787  12.844  12.874  12.962  13.123  13.178
 13.321  13.377  13.431  14.011  14.227  14.658  15.062  15.088
 --------------------------------------------------------------
 
          Ground-State Mulliken Net Atomic Charges

     Atom                 Charge (a.u.)
  ----------------------------------------
      1 C                    -0.092351
      2 C                    -0.129366
      3 C                    -0.080116
      4 C                    -0.117421
      5 N                    -0.145249
      6 C                     0.082022
      7 C                     0.100327
      8 N                    -0.177935
      9 C                    -0.016666
     10 C                    -0.080379
     11 N                    -0.217400
     12 C                     0.051802
     13 C                     0.057338
     14 S                     0.405616
     15 N                    -0.305136
     16 C                    -0.070277
     17 S                     0.222385
     18 C                     0.046050
     19 C                    -0.109822
     20 N                    -0.169770
     21 C                     0.044679
     22 C                    -0.028673
     23 C                    -0.049983
     24 N                    -0.128830
     25 C                    -0.147330
     26 S                     0.129822
     27 C                    -0.050192
     28 C                    -0.149030
     29 C                    -0.183447
     30 H                     0.133156
     31 H                     0.120072
     32 H                     0.120210
     33 H                     0.138350
     34 H                     0.138250
     35 H                     0.128085
     36 H                     0.135622
     37 H                     0.132319
     38 H                     0.128884
     39 H                     0.134382
  ----------------------------------------
  Sum of atomic charges =     0.000000

 -----------------------------------------------------------------
                    Cartesian Multipole Moments
 -----------------------------------------------------------------
    Charge (ESU x 10^10)
                 0.0000
    Dipole Moment (Debye)
         X       0.1831      Y       1.0569      Z       1.0732
       Tot       1.5173
    Quadrupole Moments (Debye-Ang)
        XX    -155.2896     XY       7.0659     YY    -167.9350
        XZ      -0.3560     YZ       0.7485     ZZ    -182.3444
    Octopole Moments (Debye-Ang^2)
       XXX     142.4505    XXY      -8.0813    XYY     -19.1559
       YYY      48.7840    XXZ       4.3522    XYZ       5.5317
       YYZ      10.7548    XZZ     -26.0623    YZZ     -12.9716
       ZZZ       5.8661
    Hexadecapole Moments (Debye-Ang^3)
      XXXX  -16447.8547   XXXY     786.2478   XXYY   -3633.9492
      XYYY    -253.5020   YYYY   -3218.9292   XXXZ      -7.2218
      XXYZ      63.8535   XYYZ      10.1812   YYYZ      20.5705
      XXZZ   -3351.7682   XYZZ       8.2168   YYZZ    -705.5494
      XZZZ      -0.1477   YZZZ     -10.4669   ZZZZ    -512.4508
 -----------------------------------------------------------------
 Calculating analytic gradient of the SCF energy
 K construction time:  CPU 2902.19 s  wall 183.82 s
 Gradient of SCF Energy
            1           2           3           4           5           6
    1   0.0001672  -0.0013131   0.0005553   0.0014711   0.0002384  -0.0013404
    2  -0.0000646  -0.0005682  -0.0001407  -0.0000128  -0.0003149   0.0000903
    3  -0.0000596  -0.0003242   0.0000234  -0.0001471   0.0001188  -0.0000445
            7           8           9          10          11          12
    1   0.0012717  -0.0011209  -0.0006965   0.0007779  -0.0000711   0.0002694
    2   0.0002666   0.0005289   0.0000046   0.0001421   0.0000002  -0.0003913
    3   0.0003338  -0.0001807  -0.0004831  -0.0005097   0.0001517   0.0003396
           13          14          15          16          17          18
    1  -0.0026525  -0.0001347   0.0005362   0.0030262   0.0006501   0.0004953
    2  -0.0003042  -0.0004064   0.0006762   0.0016274  -0.0011831  -0.0000806
    3  -0.0001575   0.0002546  -0.0005210  -0.0012123   0.0009456   0.0006816
           19          20          21          22          23          24
    1  -0.0115624  -0.0000356  -0.0003219   0.0117868  -0.0010592   0.0018516
    2  -0.0104001  -0.0004379   0.0044316   0.0061622  -0.0012050  -0.0009449
    3  -0.0009077  -0.0001183   0.0018621  -0.0017265   0.0001769  -0.0002651
           25          26          27          28          29          30
    1  -0.0029359  -0.0013101   0.0011193   0.0010987  -0.0010718   0.0000075
    2  -0.0018446   0.0006495   0.0029168   0.0010524  -0.0012785   0.0002037
    3   0.0065795  -0.0028271   0.0001107  -0.0011116  -0.0003085   0.0002863
           31          32          33          34          35          36
    1   0.0002403  -0.0002889   0.0000944   0.0002865   0.0002211  -0.0003985
    2   0.0005293   0.0001490   0.0001135  -0.0002340   0.0000722   0.0005714
    3   0.0001097   0.0001229  -0.0000071   0.0004226  -0.0003199  -0.0017937
           37          38          39
    1  -0.0005251   0.0005598   0.0001140
    2  -0.0002048  -0.0001688  -0.0000027
    3  -0.0000343   0.0005009   0.0000387
 Max gradient component =       1.179E-02
 RMS gradient           =       2.222E-03
 Gradient time:  CPU 3360.10 s  wall 214.86 s
 Geometry Optimization Parameters
   NAtoms,    NIC,     NZ,  NCons,   NDum,   NFix, NCnnct, MaxDiis
       39     293       0       3       0       0       0       0


** CONSTRAINED OPTIMIZATION IN DELOCALIZED INTERNAL COORDINATES **
   Searching for a Minimum

   Optimization Cycle:   1

                       Coordinates (Angstroms)
     ATOM                X               Y               Z
      1  C         7.6955635499    0.4017642615   -0.2641138405
      2  C         6.9993639737    1.5579826487    0.0483039252
      3  C         6.9691459070   -0.7496212838   -0.5221821087
      4  C         5.6214173894    1.5145640266    0.0979596819
      5  N         5.6443947228   -0.8072083949   -0.4745906268
      6  C         4.9808451551    0.3045288649   -0.1646175789
      7  C         3.4992374517    0.2395042911   -0.1119666844
      8  N         2.8462306480    1.3595055762   -0.2571118617
      9  C         2.7613148017   -0.9706299866    0.1059942493
     10  C         1.4926894277    1.4117580489   -0.2197096317
     11  N         3.2360214415   -2.1971135550    0.3333702393
     12  C         1.3305048841   -0.9103246868    0.1346806040
     13  C         0.6552815076    0.3368774023   -0.0323716667
     14  S         1.9638780517   -3.1516181329    0.5325433337
     15  N         0.7612752431   -2.0930782535    0.3578530576
     16  C        -0.7922578148    0.4713500456    0.0241877356
     17  S        -1.8537051998   -0.8808717146   -0.0164589881
     18  C        -1.5574329731    1.6331482850    0.1296425297
     19  C        -3.2876341076    0.0384102050    0.0701657772
     20  N        -1.0744620067    2.9051085027    0.2017521429
     21  C        -2.9666196608    1.3876395909    0.1592917243
     22  C        -4.5987879366   -0.5700597870    0.0674272724
     23  C        -1.9635663276    3.8453865683    0.2900874417
     24  N        -3.8707384729    2.3996188641    0.2524133355
     25  C        -5.3344749654   -0.9844993766    1.1435943473
     26  S        -5.4652492845   -0.8601217768   -1.4070230153
     27  C        -3.3697579529    3.5950378745    0.3145908707
     28  C        -6.5825191406   -1.5440566435    0.7795104887
     29  C        -6.7871508406   -1.5489146172   -0.5643826950
     30  H         8.7753886554    0.3902999876   -0.3072984785
     31  H         7.5254258332    2.4815214766    0.2531915086
     32  H         7.4735361330   -1.6727576098   -0.7817274265
     33  H         5.0304010046    2.3870126752    0.3306192028
     34  H         1.0712180926    2.3973889190   -0.3320912800
     35  H        -1.6021134811    4.8668878202    0.3434271670
     36  H        -4.9810910387   -0.8762470576    2.1551385088
     37  H        -4.0633479770    4.4254532574    0.3897263008
     38  H        -7.2928994293   -1.9310391605    1.4940998566
     39  H        -7.6453198665   -1.9136378878   -1.1024253041
   Point Group: c1    Number of degrees of freedom:   111


   Energy is  -2291.145388961

              Constraints and their Current Values
                                        Value     Constraint
   Dihedral:        4   6   7   8       21.915       21.822
   Dihedral:       10  13  16  17      169.085      169.064
   Dihedral:       17  19  22  25       90.000       90.000

 Attempting to Generate Delocalized Internal Coordinates

   Using Lagrange Multiplier Algorithm


114 Hessian modes will be used to form the next step
  Hessian Eigenvalues:
    -0.977753   -0.977753   -0.977753    0.045000    0.045000    0.045000
     0.045000    0.045000    0.045000    0.045000    0.045000    0.045000
     0.045000    0.045000    0.045000    0.045000    0.045001    0.045001
     0.045001    0.045001    0.045001    0.045001    0.045001    0.045002
     0.045002    0.045002    0.045002    0.045003    0.045003    0.045004
     0.045004    0.045007    0.045008    0.045011    0.045025    0.045042
     0.159985    0.159992    0.159996    0.159998    0.159999    0.159999
     0.160000    0.160000    0.160000    0.160000    0.219998    0.221296
     0.223765    0.224234    0.233056    0.237962    0.243336    0.244277
     0.249685    0.249909    0.249932    0.249960    0.249971    0.249981
     0.249981    0.249983    0.249989    0.249990    0.249993    0.249993
     0.249995    0.312601    0.327535    0.334461    0.341192    0.341256
     0.354114    0.354472    0.355757    0.357029    0.359040    0.360709
     0.360954    0.362567    0.363654    0.364140    0.369052    0.372793
     0.376138    0.388453    0.390986    0.406991    0.407223    0.418669
     0.432515    0.440848    0.460521    0.465839    0.471161    0.473690
     0.482782    0.484038    0.485870    0.485956    0.504407    0.517477
     0.518976    0.525383    0.557629    0.572590    0.582389    0.589743
     0.639523    0.655133    0.663889    1.022753    1.022753    1.022753

 Minimum Search - Taking P-RFO Step
 Searching for Lamda that Maximizes Along the Constraint modes Only
 Value Taken    Lamda =   0.00000357
 Searching for Lamda that Minimizes Along All other modes
 Value Taken    Lamda =  -0.00072198
 Step Taken.  Stepsize is  0.073838

                             Maximum     Tolerance    Cnvgd?
         Gradient            0.005371       0.000300      NO
         Displacement        0.032541       0.001200      NO
         Energy change     *********       0.000001      NO


 New Cartesian Coordinates Obtained by Inverse Iteration

 Displacement from previous Coordinates is:  0.369871
 ----------------------------------------------------------------
             Standard Nuclear Orientation (Angstroms)
    I     Atom           X                Y                Z
 ----------------------------------------------------------------
    1      C       7.6967544001     0.3772462875    -0.2903689479
    2      C       7.0149533416     1.5356305073     0.0457793106
    3      C       6.9580395199    -0.7659657646    -0.5492154536
    4      C       5.6363320769     1.5024446819     0.1139366803
    5      N       5.6341913011    -0.8142286858    -0.4816886101
    6      C       4.9847801508     0.2992426351    -0.1507526199
    7      C       3.5027978943     0.2455733467    -0.0891540792
    8      N       2.8585656227     1.3717950181    -0.2226336932
    9      C       2.7585572983    -0.9602619967     0.1250257891
   10      C       1.5046415845     1.4339326801    -0.1867517764
   11      N       3.2257189865    -2.1912358592     0.3422045249
   12      C       1.3282009286    -0.8899782596     0.1549328004
   13      C       0.6617245735     0.3621858257    -0.0098430709
   14      S       1.9468789513    -3.1374327891     0.5367930001
   15      N       0.7504048072    -2.0704217419     0.3719397664
   16      C      -0.7887073318     0.4964929507     0.0331437531
   17      S      -1.8381921422    -0.8610930870    -0.0213968403
   18      C      -1.5628905776     1.6547497965     0.1262342042
   19      C      -3.2745022422     0.0488981619     0.0615687083
   20      N      -1.0938542612     2.9321991461     0.2034527524
   21      C      -2.9694683759     1.3956864320     0.1425539808
   22      C      -4.5900170138    -0.5799011436     0.0621439009
   23      C      -1.9952614853     3.8616025384     0.2845857047
   24      N      -3.8895779967     2.3942503943     0.2292325117
   25      C      -5.3197548235    -0.9969374872     1.1358830909
   26      S      -5.4487288086    -0.8839712902    -1.4082034143
   27      C      -3.3996981357     3.5927724325     0.2962961928
   28      C      -6.5694240622    -1.5595571642     0.7780210937
   29      C      -6.7728170864    -1.5649059935    -0.5653331823
   30      H       8.7754961595     0.3567598657    -0.3530966672
   31      H       7.5512321081     2.4521293712     0.2511643029
   32      H       7.4526337665    -1.6894053089    -0.8276677233
   33      H       5.0539555430     2.3764468721     0.3617757865
   34      H       1.0881395567     2.4220703786    -0.3007865206
   35      H      -1.6484463266     4.8874955481     0.3463875688
   36      H      -4.9657887205    -0.8880877286     2.1498810577
   37      H      -4.0997135250     4.4177355725     0.3680363625
   38      H      -7.2825060045    -1.9444266118     1.4910082195
   39      H      -7.6306442547    -1.9305802637    -1.1035883494
 ----------------------------------------------------------------
 Molecular Point Group                 C1    NOp =  1
 Largest Abelian Subgroup              C1    NOp =  1
 Nuclear Repulsion Energy =  2923.4123000021 hartrees
 There are      110 alpha and      110 beta electrons
 Applying Cartesian multipole field
    Component          Value
    ---------          -----
     (2,0,0)        1.00000E-12
     (0,2,0)        2.00000E-11
     (0,0,2)       -3.00000E-11
 Nucleus-field energy     =     0.0000000586 hartrees
 Requested basis set is cc-pVTZ
 There are 356 shells and 1022 basis functions
 A cutoff of  1.0D-11 yielded  30908 shell pairs
 There are    243698 function pairs (    318107 Cartesian)
 Smallest overlap matrix eigenvalue = 2.87E-05
 Guess MOs from SCF MO coefficient file
 Reading MOs from coefficient file
 Reading MOs from coefficient file
 Long-range K will be added via erf
 Coulomb attenuation parameter = 0.2 bohr**(-1)
 A restricted hybrid HF-DFT SCF calculation will be
 performed using Pulay DIIS extrapolation
 Exchange:     0.2220 Hartree-Fock + 1.0000 wB97X-D + LR-HF
 Correlation:  1.0000 wB97X-D
 Using SG-2 standard quadrature grid
 Dispersion:   Grimme D
 SCF converges when DIIS error is below 1.0E-08
 Geometry optimization detected.  Setting ReadMinima to 0
 Setting SaveMinima to 0
 using 16 threads for integral computing 
 using 16 threads for integral computing 
 K construction time:  CPU 1115.87 s  wall 73.69 s
 -------------------------------------------------------
 OpenMP BLAS3 based DFT computing Module                
 Release: version 1.0, May 2013, Q-Chem Inc. Pittsburgh 
 -------------------------------------------------------
 ---------------------------------------
  Cycle       Energy         DIIS Error
 ---------------------------------------
    1   -2291.1459688306      2.11E-04
 K construction time:  CPU 1115.95 s  wall 73.79 s
    2   -2291.1456573045      2.36E-05
 K construction time:  CPU 818.08 s  wall 54.03 s
    3   -2291.1457243509      2.27E-05
 K construction time:  CPU 776.85 s  wall 51.31 s
    4   -2291.1457799689      8.80E-06
 K construction time:  CPU 722.59 s  wall 47.78 s
    5   -2291.1457899664      3.35E-06
 K construction time:  CPU 667.81 s  wall 44.08 s
    6   -2291.1457917090      1.18E-06
 K construction time:  CPU 601.94 s  wall 39.69 s
    7   -2291.1457919398      4.20E-07
 K construction time:  CPU 544.11 s  wall 35.86 s
    8   -2291.1457919762      1.78E-07
 K construction time:  CPU 500.74 s  wall 32.99 s
    9   -2291.1457919829      8.73E-08
 K construction time:  CPU 436.49 s  wall 28.70 s
   10   -2291.1457919847      3.54E-08
 K construction time:  CPU 389.90 s  wall 25.52 s
   11   -2291.1457919830      1.47E-08
 K construction time:  CPU 345.25 s  wall 22.54 s
   12   -2291.1457919812      6.72E-09 Convergence criterion met
 ---------------------------------------
 SCF time:  CPU 10839.84 s  wall 734.15 s
 SCF   energy in the final basis set = -2291.1457919812
 Total energy in the final basis set = -2291.1457919812
 
 --------------------------------------------------------------
 
                    Orbital Energies (a.u.)
 --------------------------------------------------------------
 
 Alpha MOs
 -- Occupied --
-89.147 -89.099 -89.077 -14.483 -14.480 -14.461 -14.459 -14.446
-14.435 -10.356 -10.353 -10.351 -10.344 -10.343 -10.341 -10.340
-10.338 -10.337 -10.336 -10.331 -10.331 -10.328 -10.324 -10.317
-10.310 -10.301 -10.299 -10.295 -10.294  -8.157  -8.113  -8.092
 -6.107  -6.102  -6.101  -6.062  -6.058  -6.057  -6.042  -6.038
 -6.035  -1.144  -1.100  -1.069  -1.049  -1.028  -1.013  -1.002
 -0.986  -0.925  -0.912  -0.897  -0.877  -0.867  -0.852  -0.837
 -0.811  -0.777  -0.771  -0.749  -0.739  -0.730  -0.716  -0.710
 -0.670  -0.657  -0.645  -0.630  -0.628  -0.620  -0.608  -0.604
 -0.586  -0.576  -0.568  -0.561  -0.559  -0.545  -0.543  -0.527
 -0.512  -0.507  -0.499  -0.498  -0.493  -0.491  -0.485  -0.481
 -0.475  -0.468  -0.463  -0.461  -0.449  -0.438  -0.428  -0.425
 -0.420  -0.410  -0.394  -0.376  -0.371  -0.360  -0.357  -0.343
 -0.337  -0.337  -0.334  -0.332  -0.318  -0.279
 -- Virtual --
 -0.053  -0.021   0.025   0.041   0.042   0.051   0.063   0.071
  0.083   0.100   0.104   0.114   0.122   0.124   0.129   0.132
  0.149   0.153   0.158   0.163   0.175   0.175   0.183   0.187
  0.190   0.205   0.208   0.216   0.222   0.229   0.238   0.247
  0.256   0.262   0.271   0.274   0.275   0.284   0.286   0.291
  0.297   0.304   0.307   0.310   0.318   0.322   0.324   0.327
  0.333   0.339   0.341   0.344   0.347   0.349   0.352   0.355
  0.361   0.365   0.371   0.376   0.379   0.383   0.385   0.388
  0.389   0.391   0.393   0.396   0.400   0.401   0.408   0.412
  0.415   0.418   0.419   0.429   0.431   0.434   0.436   0.438
  0.442   0.446   0.447   0.451   0.454   0.458   0.461   0.463
  0.467   0.469   0.474   0.477   0.483   0.489   0.490   0.496
  0.500   0.503   0.506   0.510   0.515   0.515   0.523   0.525
  0.526   0.528   0.532   0.533   0.538   0.542   0.544   0.550
  0.557   0.563   0.568   0.573   0.579   0.581   0.584   0.588
  0.597   0.604   0.606   0.610   0.616   0.625   0.629   0.637
  0.641   0.647   0.649   0.653   0.654   0.663   0.666   0.672
  0.674   0.677   0.688   0.692   0.697   0.704   0.710   0.717
  0.718   0.727   0.728   0.737   0.739   0.743   0.746   0.756
  0.759   0.765   0.765   0.771   0.776   0.778   0.781   0.789
  0.794   0.796   0.798   0.805   0.812   0.818   0.822   0.824
  0.831   0.832   0.835   0.839   0.844   0.847   0.853   0.855
  0.859   0.866   0.870   0.872   0.879   0.884   0.893   0.898
  0.908   0.911   0.915   0.918   0.922   0.925   0.931   0.938
  0.943   0.948   0.949   0.952   0.957   0.960   0.965   0.972
  0.975   0.980   0.987   0.988   1.000   1.002   1.009   1.015
  1.023   1.026   1.030   1.036   1.048   1.053   1.056   1.058
  1.064   1.072   1.079   1.084   1.088   1.092   1.095   1.097
  1.103   1.106   1.107   1.122   1.124   1.129   1.137   1.142
  1.152   1.157   1.161   1.174   1.176   1.186   1.192   1.193
  1.198   1.201   1.214   1.217   1.230   1.234   1.243   1.251
  1.256   1.264   1.266   1.270   1.283   1.287   1.298   1.299
  1.303   1.312   1.318   1.328   1.332   1.342   1.349   1.354
  1.360   1.362   1.365   1.372   1.381   1.382   1.384   1.390
  1.395   1.402   1.412   1.418   1.425   1.428   1.436   1.442
  1.444   1.451   1.452   1.461   1.474   1.477   1.481   1.486
  1.489   1.498   1.503   1.507   1.511   1.516   1.522   1.533
  1.545   1.550   1.565   1.567   1.573   1.584   1.586   1.592
  1.607   1.614   1.617   1.622   1.632   1.638   1.644   1.645
  1.650   1.661   1.668   1.669   1.681   1.690   1.694   1.704
  1.709   1.713   1.721   1.725   1.727   1.739   1.745   1.750
  1.761   1.768   1.778   1.786   1.789   1.798   1.805   1.810
  1.816   1.824   1.842   1.853   1.866   1.876   1.888   1.890
  1.896   1.901   1.916   1.918   1.934   1.936   1.941   1.947
  1.961   1.969   1.977   1.981   1.986   1.991   1.999   2.008
  2.011   2.022   2.030   2.039   2.044   2.054   2.055   2.070
  2.077   2.089   2.103   2.108   2.112   2.117   2.122   2.134
  2.137   2.150   2.156   2.173   2.177   2.183   2.184   2.198
  2.204   2.211   2.217   2.228   2.232   2.243   2.247   2.257
  2.266   2.278   2.291   2.292   2.295   2.301   2.308   2.317
  2.319   2.329   2.332   2.345   2.348   2.362   2.368   2.372
  2.377   2.382   2.387   2.398   2.404   2.407   2.422   2.427
  2.432   2.442   2.448   2.458   2.460   2.468   2.470   2.479
  2.486   2.498   2.501   2.515   2.518   2.522   2.528   2.531
  2.535   2.539   2.545   2.546   2.557   2.564   2.573   2.588
  2.606   2.611   2.629   2.632   2.639   2.643   2.656   2.661
  2.664   2.669   2.679   2.683   2.694   2.701   2.716   2.723
  2.730   2.733   2.747   2.755   2.758   2.766   2.775   2.778
  2.786   2.790   2.795   2.805   2.809   2.815   2.823   2.827
  2.833   2.845   2.855   2.864   2.868   2.873   2.878   2.885
  2.887   2.892   2.901   2.912   2.914   2.920   2.924   2.933
  2.935   2.945   2.949   2.952   2.958   2.963   2.976   2.977
  2.982   2.989   3.003   3.005   3.008   3.011   3.020   3.025
  3.027   3.030   3.034   3.043   3.045   3.053   3.058   3.062
  3.064   3.067   3.070   3.072   3.080   3.082   3.085   3.087
  3.091   3.095   3.101   3.106   3.117   3.121   3.124   3.134
  3.142   3.145   3.151   3.158   3.159   3.164   3.166   3.172
  3.175   3.182   3.188   3.190   3.197   3.198   3.205   3.207
  3.211   3.213   3.220   3.222   3.233   3.234   3.237   3.242
  3.248   3.249   3.253   3.259   3.261   3.266   3.268   3.277
  3.281   3.284   3.286   3.292   3.296   3.298   3.302   3.307
  3.312   3.320   3.322   3.328   3.332   3.334   3.338   3.346
  3.352   3.356   3.359   3.374   3.381   3.388   3.392   3.399
  3.400   3.403   3.407   3.416   3.419   3.425   3.430   3.437
  3.439   3.449   3.455   3.462   3.466   3.468   3.475   3.477
  3.482   3.489   3.497   3.502   3.506   3.510   3.512   3.518
  3.522   3.526   3.536   3.546   3.565   3.567   3.571   3.582
  3.590   3.602   3.609   3.616   3.621   3.626   3.630   3.637
  3.658   3.666   3.667   3.680   3.689   3.691   3.698   3.704
  3.713   3.714   3.722   3.736   3.739   3.743   3.750   3.758
  3.766   3.773   3.778   3.785   3.795   3.803   3.808   3.815
  3.822   3.825   3.834   3.840   3.847   3.857   3.875   3.878
  3.887   3.900   3.905   3.914   3.917   3.920   3.930   3.933
  3.936   3.938   3.938   3.946   3.955   3.960   3.975   3.979
  3.989   3.993   4.001   4.011   4.016   4.019   4.026   4.035
  4.053   4.058   4.064   4.068   4.074   4.086   4.093   4.097
  4.099   4.112   4.121   4.134   4.147   4.150   4.161   4.173
  4.174   4.185   4.190   4.199   4.204   4.208   4.211   4.228
  4.228   4.241   4.243   4.248   4.258   4.261   4.269   4.276
  4.288   4.294   4.297   4.306   4.318   4.323   4.330   4.332
  4.341   4.355   4.357   4.364   4.372   4.374   4.386   4.396
  4.405   4.415   4.427   4.435   4.437   4.440   4.446   4.450
  4.467   4.485   4.487   4.499   4.515   4.524   4.527   4.535
  4.547   4.551   4.561   4.564   4.586   4.590   4.606   4.611
  4.625   4.632   4.644   4.652   4.658   4.673   4.683   4.700
  4.710   4.718   4.730   4.737   4.758   4.765   4.771   4.792
  4.795   4.805   4.810   4.815   4.826   4.836   4.846   4.864
  4.874   4.878   4.888   4.896   4.900   4.910   4.918   4.936
  4.937   4.948   4.949   4.967   4.973   4.983   4.984   4.990
  4.995   5.003   5.006   5.013   5.026   5.038   5.045   5.051
  5.070   5.080   5.092   5.099   5.110   5.113   5.116   5.118
  5.131   5.141   5.149   5.158   5.168   5.178   5.182   5.189
  5.205   5.212   5.240   5.263   5.271   5.302   5.306   5.314
  5.325   5.342   5.351   5.374   5.378   5.400   5.419   5.427
  5.449   5.464   5.477   5.489   5.495   5.497   5.509   5.540
  5.557   5.562   5.577   5.591   5.599   5.609   5.613   5.650
  5.674   5.699   5.717   5.720   5.742   5.753   5.758   5.792
  5.797   5.825   5.838   5.858   5.868   5.889   5.907   5.915
  5.944   5.962   6.000   6.016   6.055   6.084   6.130   6.181
  6.200   6.238   6.251   6.268   6.306   6.354   6.382   6.401
  6.445   6.489   6.604   6.873   6.988   7.078   8.069   8.915
  9.762  10.040  10.639  11.139  11.320  11.568  12.006  12.096
 12.394  12.642  12.796  12.855  12.878  12.965  13.115  13.174
 13.327  13.418  13.443  14.022  14.226  14.659  15.062  15.088
 --------------------------------------------------------------
 
          Ground-State Mulliken Net Atomic Charges

     Atom                 Charge (a.u.)
  ----------------------------------------
      1 C                    -0.092228
      2 C                    -0.129365
      3 C                    -0.080305
      4 C                    -0.117939
      5 N                    -0.145262
      6 C                     0.082159
      7 C                     0.101080
      8 N                    -0.177671
      9 C                    -0.016945
     10 C                    -0.080463
     11 N                    -0.216960
     12 C                     0.052957
     13 C                     0.057218
     14 S                     0.405395
     15 N                    -0.305172
     16 C                    -0.071255
     17 S                     0.222825
     18 C                     0.044610
     19 C                    -0.112174
     20 N                    -0.169955
     21 C                     0.048393
     22 C                    -0.028177
     23 C                    -0.050098
     24 N                    -0.128237
     25 C                    -0.146715
     26 S                     0.130446
     27 C                    -0.050389
     28 C                    -0.149492
     29 C                    -0.183857
     30 H                     0.133162
     31 H                     0.120380
     32 H                     0.119987
     33 H                     0.138252
     34 H                     0.137375
     35 H                     0.128457
     36 H                     0.134647
     37 H                     0.132147
     38 H                     0.129091
     39 H                     0.134078
  ----------------------------------------
  Sum of atomic charges =     0.000000

 -----------------------------------------------------------------
                    Cartesian Multipole Moments
 -----------------------------------------------------------------
    Charge (ESU x 10^10)
                 0.0000
    Dipole Moment (Debye)
         X       0.2304      Y       1.0266      Z       1.0429
       Tot       1.4814
    Quadrupole Moments (Debye-Ang)
        XX    -155.2168     XY       6.8141     YY    -167.9888
        XZ      -0.6410     YZ       0.7979     ZZ    -182.3184
    Octopole Moments (Debye-Ang^2)
       XXX     144.8752    XXY      -8.3884    XYY     -20.7730
       YYY      46.9738    XXZ       2.5614    XYZ       5.6444
       YYZ      10.2193    XZZ     -25.5021    YZZ     -13.5259
       ZZZ       4.9868
    Hexadecapole Moments (Debye-Ang^3)
      XXXX  -16428.8077   XXXY     780.4347   XXYY   -3627.4918
      XYYY    -254.9673   YYYY   -3226.2346   XXXZ     -33.7943
      XXYZ      67.1978   XYYZ       7.7564   YYYZ      20.2444
      XXZZ   -3347.1138   XYZZ       9.5337   YYZZ    -706.3233
      XZZZ      -4.8191   YZZZ     -10.7995   ZZZZ    -513.2998
 -----------------------------------------------------------------
 Calculating analytic gradient of the SCF energy
 K construction time:  CPU 2897.35 s  wall 183.54 s
 Gradient of SCF Energy
            1           2           3           4           5           6
    1   0.0000958  -0.0002259   0.0001072   0.0001742   0.0000234  -0.0003952
    2  -0.0002315   0.0000365   0.0001081   0.0002218  -0.0000104  -0.0002288
    3  -0.0001588   0.0000364   0.0000174  -0.0003990   0.0001512   0.0006183
            7           8           9          10          11          12
    1   0.0005676  -0.0003000   0.0000041   0.0006044   0.0001718  -0.0000153
    2  -0.0002256   0.0000372  -0.0001333   0.0004219   0.0000625  -0.0002319
    3  -0.0004311   0.0001224   0.0000155  -0.0001635  -0.0000574   0.0003073
           13          14          15          16          17          18
    1  -0.0007960  -0.0000003  -0.0004910   0.0009102   0.0010672  -0.0003581
    2  -0.0004601   0.0001842   0.0003332   0.0000472   0.0000291   0.0001246
    3  -0.0002059   0.0000005  -0.0002668  -0.0005198  -0.0000914   0.0006099
           19          20          21          22          23          24
    1  -0.0023334  -0.0005366   0.0000373   0.0024489  -0.0007409   0.0006139
    2  -0.0017657  -0.0001947   0.0019310   0.0020657   0.0000101  -0.0013557
    3   0.0001439  -0.0000315   0.0006141   0.0001187   0.0000279  -0.0002635
           25          26          27          28          29          30
    1  -0.0013431  -0.0003795   0.0007471   0.0002080  -0.0001824  -0.0000053
    2  -0.0012384  -0.0003816   0.0006724   0.0004628  -0.0000953   0.0000267
    3   0.0002140  -0.0003903  -0.0000203  -0.0005278   0.0004007   0.0001534
           31          32          33          34          35          36
    1  -0.0000167  -0.0000301  -0.0000143   0.0001834   0.0001618   0.0000710
    2   0.0000301  -0.0000329   0.0000316  -0.0002154   0.0000111   0.0004236
    3  -0.0000446   0.0000599  -0.0000414   0.0000367  -0.0000999  -0.0001549
           37          38          39
    1  -0.0001338   0.0001132  -0.0000126
    2  -0.0002809  -0.0002646   0.0000754
    3   0.0000070   0.0001601   0.0000522
 Max gradient component =       2.449E-03
 RMS gradient           =       5.762E-04
 Gradient time:  CPU 3354.28 s  wall 214.55 s
 Geometry Optimization Parameters
   NAtoms,    NIC,     NZ,  NCons,   NDum,   NFix, NCnnct, MaxDiis
       39     293       0       3       0       0       0       0

 Cartesian Hessian Update
 Hessian Updated using BFGS Update


** CONSTRAINED OPTIMIZATION IN DELOCALIZED INTERNAL COORDINATES **
   Searching for a Minimum

   Optimization Cycle:   2

                       Coordinates (Angstroms)
     ATOM                X               Y               Z
      1  C         7.6967544001    0.3772462875   -0.2903689479
      2  C         7.0149533416    1.5356305073    0.0457793106
      3  C         6.9580395199   -0.7659657646   -0.5492154536
      4  C         5.6363320769    1.5024446819    0.1139366803
      5  N         5.6341913011   -0.8142286858   -0.4816886101
      6  C         4.9847801508    0.2992426351   -0.1507526199
      7  C         3.5027978943    0.2455733467   -0.0891540792
      8  N         2.8585656227    1.3717950181   -0.2226336932
      9  C         2.7585572983   -0.9602619967    0.1250257891
     10  C         1.5046415845    1.4339326801   -0.1867517764
     11  N         3.2257189865   -2.1912358592    0.3422045249
     12  C         1.3282009286   -0.8899782596    0.1549328004
     13  C         0.6617245735    0.3621858257   -0.0098430709
     14  S         1.9468789513   -3.1374327891    0.5367930001
     15  N         0.7504048072   -2.0704217419    0.3719397664
     16  C        -0.7887073318    0.4964929507    0.0331437531
     17  S        -1.8381921422   -0.8610930870   -0.0213968403
     18  C        -1.5628905776    1.6547497965    0.1262342042
     19  C        -3.2745022422    0.0488981619    0.0615687083
     20  N        -1.0938542612    2.9321991461    0.2034527524
     21  C        -2.9694683759    1.3956864320    0.1425539808
     22  C        -4.5900170138   -0.5799011436    0.0621439009
     23  C        -1.9952614853    3.8616025384    0.2845857047
     24  N        -3.8895779967    2.3942503943    0.2292325117
     25  C        -5.3197548235   -0.9969374872    1.1358830909
     26  S        -5.4487288086   -0.8839712902   -1.4082034143
     27  C        -3.3996981357    3.5927724325    0.2962961928
     28  C        -6.5694240622   -1.5595571642    0.7780210937
     29  C        -6.7728170864   -1.5649059935   -0.5653331823
     30  H         8.7754961595    0.3567598657   -0.3530966672
     31  H         7.5512321081    2.4521293712    0.2511643029
     32  H         7.4526337665   -1.6894053089   -0.8276677233
     33  H         5.0539555430    2.3764468721    0.3617757865
     34  H         1.0881395567    2.4220703786   -0.3007865206
     35  H        -1.6484463266    4.8874955481    0.3463875688
     36  H        -4.9657887205   -0.8880877286    2.1498810577
     37  H        -4.0997135250    4.4177355725    0.3680363625
     38  H        -7.2825060045   -1.9444266118    1.4910082195
     39  H        -7.6306442547   -1.9305802637   -1.1035883494
   Point Group: c1    Number of degrees of freedom:   111


   Energy is  -2291.145791981

              Constraints and their Current Values
                                        Value     Constraint
   Dihedral:        4   6   7   8       21.822       21.822
   Dihedral:       10  13  16  17      169.064      169.064
   Dihedral:       17  19  22  25       90.000       90.000
 Hessian Updated using BFGS Update

102 Hessian modes will be used to form the next step
  Hessian Eigenvalues:
     0.036046    0.045000    0.045000    0.045000    0.045000    0.045000
     0.045000    0.045000    0.045001    0.045001    0.045001    0.045001
     0.045001    0.045001    0.045002    0.045002    0.045002    0.045002
     0.045003    0.045004    0.045004    0.045005    0.045008    0.045011
     0.045025    0.045040    0.046530    0.156607    0.159986    0.159995
     0.159997    0.159999    0.159999    0.160000    0.160000    0.160000
     0.160127    0.218408    0.220108    0.222934    0.224198    0.231711
     0.234317    0.238844    0.244164    0.246245    0.249686    0.249926
     0.249941    0.249964    0.249973    0.249981    0.249983    0.249989
     0.249991    0.249993    0.249994    0.277407    0.313718    0.328796
     0.334704    0.340254    0.342135    0.354092    0.354438    0.355787
     0.357150    0.359038    0.360572    0.360950    0.362098    0.364131
     0.364488    0.368788    0.372779    0.375973    0.389746    0.390977
     0.407064    0.409100    0.418842    0.432509    0.453121    0.458462
     0.461863    0.471255    0.473659    0.480040    0.484565    0.485840
     0.486185    0.506082    0.515405    0.525135    0.531473    0.557679
     0.572649    0.582404    0.589747    0.639475    0.655045    0.663722

 Minimum Search - Taking Simple RFO Step
 Searching for Lamda that Minimizes Along All modes
 Value Taken    Lamda =  -0.00016308
 Step Taken.  Stepsize is  0.049433

                             Maximum     Tolerance    Cnvgd?
         Gradient           0.002742      0.000300      NO
         Displacement       0.029655      0.001200      NO
         Energy change     -0.000403      0.000001      NO


 New Cartesian Coordinates Obtained by Inverse Iteration

 Displacement from previous Coordinates is:  0.338754
 ----------------------------------------------------------------
             Standard Nuclear Orientation (Angstroms)
    I     Atom           X                Y                Z
 ----------------------------------------------------------------
    1      C       7.6914285472     0.3984375070    -0.3198051034
    2      C       7.0089215241     1.5496519237     0.0383017054
    3      C       6.9552364980    -0.7463837131    -0.5790630180
    4      C       5.6311155777     1.5084470841     0.1249481706
    5      N       5.6329757879    -0.8026302124    -0.4925141284
    6      C       4.9828396875     0.3041323700    -0.1415310905
    7      C       3.5010811205     0.2427092288    -0.0685711815
    8      N       2.8506634347     1.3663205559    -0.1903316251
    9      C       2.7654848488    -0.9683884607     0.1449495130
   10      C       1.4962168374     1.4190168425    -0.1527762347
   11      N       3.2418232606    -2.1971702562     0.3550527571
   12      C       1.3348123820    -0.9076602552     0.1803983003
   13      C       0.6608661789     0.3413669179     0.0184032576
   14      S       1.9710321815    -3.1534467758     0.5518456921
   15      N       0.7670147467    -2.0936945208     0.3960153376
   16      C      -0.7909450335     0.4746570644     0.0513112978
   17      S      -1.8476550297    -0.8766376131    -0.0103064854
   18      C      -1.5575021875     1.6380944781     0.1296801412
   19      C      -3.2758098775     0.0444084782     0.0584145925
   20      N      -1.0783206020     2.9121104284     0.2070459441
   21      C      -2.9657338186     1.3880172331     0.1332106515
   22      C      -4.5979982184    -0.5810592229     0.0567030664
   23      C      -1.9742412676     3.8475035573     0.2777323684
   24      N      -3.8810191930     2.3939611241     0.2099235950
   25      C      -5.3325003882    -0.9859407201     1.1294801245
   26      S      -5.4497881334    -0.8846127147    -1.4149502422
   27      C      -3.3816758017     3.5880722338     0.2779173752
   28      C      -6.5864264211    -1.5398183240     0.7697538629
   29      C      -6.7830195613    -1.5497503009    -0.5749947922
   30      H       8.7690722238     0.3840826420    -0.4008844610
   31      H       7.5434678481     2.4667162268     0.2446219906
   32      H       7.4510650698    -1.6636596604    -0.8754872579
   33      H       5.0472979783     2.3768654468     0.3882947978
   34      H       1.0718913926     2.4046807358    -0.2646754476
   35      H      -1.6225549066     4.8714531672     0.3418702092
   36      H      -4.9820014485    -0.8778890806     2.1454726877
   37      H      -4.0736879993     4.4206051494     0.3418815555
   38      H      -7.3080580275    -1.9129975775     1.4800220168
   39      H      -7.6413638141    -1.9106217198    -1.1158598284
 ----------------------------------------------------------------
 Molecular Point Group                 C1    NOp =  1
 Largest Abelian Subgroup              C1    NOp =  1
 Nuclear Repulsion Energy =  2922.8011149797 hartrees
 There are      110 alpha and      110 beta electrons
 Applying Cartesian multipole field
    Component          Value
    ---------          -----
     (2,0,0)        1.00000E-12
     (0,2,0)        2.00000E-11
     (0,0,2)       -3.00000E-11
 Nucleus-field energy     =     0.0000000585 hartrees
 Requested basis set is cc-pVTZ
 There are 356 shells and 1022 basis functions
 A cutoff of  1.0D-11 yielded  30912 shell pairs
 There are    243894 function pairs (    318403 Cartesian)
 Smallest overlap matrix eigenvalue = 2.87E-05
 Guess MOs from SCF MO coefficient file
 Reading MOs from coefficient file
 Reading MOs from coefficient file
 Long-range K will be added via erf
 Coulomb attenuation parameter = 0.2 bohr**(-1)
 A restricted hybrid HF-DFT SCF calculation will be
 performed using Pulay DIIS extrapolation
 Exchange:     0.2220 Hartree-Fock + 1.0000 wB97X-D + LR-HF
 Correlation:  1.0000 wB97X-D
 Using SG-2 standard quadrature grid
 Dispersion:   Grimme D
 SCF converges when DIIS error is below 1.0E-08
 Geometry optimization detected.  Setting ReadMinima to 0
 Setting SaveMinima to 0
 using 16 threads for integral computing 
 using 16 threads for integral computing 
 K construction time:  CPU 1114.27 s  wall 73.61 s
 -------------------------------------------------------
 OpenMP BLAS3 based DFT computing Module                
 Release: version 1.0, May 2013, Q-Chem Inc. Pittsburgh 
 -------------------------------------------------------
 ---------------------------------------
  Cycle       Energy         DIIS Error
 ---------------------------------------
    1   -2291.1432995965      1.79E-04
 K construction time:  CPU 1116.81 s  wall 73.81 s
    2   -2291.1457272819      1.97E-05
 K construction time:  CPU 811.69 s  wall 53.56 s
    3   -2291.1457920622      1.94E-05
 K construction time:  CPU 761.42 s  wall 50.30 s
    4   -2291.1458337656      7.57E-06
 K construction time:  CPU 709.42 s  wall 46.88 s
    5   -2291.1458422614      2.65E-06
 K construction time:  CPU 658.71 s  wall 43.42 s
    6   -2291.1458433645      1.10E-06
 K construction time:  CPU 598.38 s  wall 39.51 s
    7   -2291.1458435480      3.95E-07
 K construction time:  CPU 540.84 s  wall 35.55 s
    8   -2291.1458435786      1.86E-07
 K construction time:  CPU 499.28 s  wall 32.77 s
    9   -2291.1458435866      7.78E-08
 K construction time:  CPU 441.10 s  wall 28.90 s
   10   -2291.1458435882      3.38E-08
 K construction time:  CPU 397.14 s  wall 26.02 s
   11   -2291.1458435871      1.40E-08
 K construction time:  CPU 354.12 s  wall 23.13 s
   12   -2291.1458435894      5.63E-09 Convergence criterion met
 ---------------------------------------
 SCF time:  CPU 10787.95 s  wall 730.32 s
 SCF   energy in the final basis set = -2291.1458435894
 Total energy in the final basis set = -2291.1458435894
 
 --------------------------------------------------------------
 
                    Orbital Energies (a.u.)
 --------------------------------------------------------------
 
 Alpha MOs
 -- Occupied --
-89.147 -89.099 -89.077 -14.483 -14.480 -14.461 -14.459 -14.445
-14.434 -10.356 -10.353 -10.351 -10.344 -10.343 -10.342 -10.340
-10.338 -10.337 -10.336 -10.331 -10.331 -10.327 -10.324 -10.317
-10.310 -10.301 -10.299 -10.295 -10.294  -8.157  -8.114  -8.092
 -6.107  -6.101  -6.101  -6.062  -6.058  -6.057  -6.042  -6.038
 -6.035  -1.144  -1.100  -1.069  -1.049  -1.028  -1.013  -1.003
 -0.986  -0.925  -0.912  -0.896  -0.877  -0.867  -0.852  -0.838
 -0.812  -0.777  -0.771  -0.748  -0.738  -0.730  -0.716  -0.710
 -0.670  -0.657  -0.646  -0.629  -0.628  -0.620  -0.608  -0.604
 -0.586  -0.576  -0.568  -0.561  -0.559  -0.546  -0.543  -0.527
 -0.512  -0.507  -0.499  -0.498  -0.493  -0.491  -0.484  -0.480
 -0.475  -0.468  -0.463  -0.461  -0.448  -0.438  -0.428  -0.426
 -0.421  -0.411  -0.394  -0.376  -0.371  -0.360  -0.357  -0.343
 -0.337  -0.337  -0.333  -0.332  -0.319  -0.279
 -- Virtual --
 -0.053  -0.021   0.025   0.041   0.043   0.051   0.063   0.071
  0.083   0.100   0.104   0.114   0.122   0.124   0.129   0.132
  0.149   0.154   0.158   0.163   0.175   0.175   0.183   0.187
  0.190   0.205   0.208   0.216   0.222   0.230   0.237   0.247
  0.256   0.262   0.271   0.273   0.274   0.284   0.286   0.291
  0.297   0.304   0.307   0.310   0.318   0.322   0.325   0.327
  0.333   0.339   0.341   0.345   0.347   0.349   0.353   0.355
  0.361   0.365   0.372   0.376   0.379   0.383   0.385   0.388
  0.389   0.391   0.393   0.396   0.400   0.401   0.408   0.412
  0.416   0.418   0.419   0.429   0.431   0.434   0.436   0.438
  0.442   0.445   0.447   0.451   0.454   0.458   0.461   0.463
  0.467   0.469   0.474   0.478   0.483   0.488   0.490   0.496
  0.500   0.503   0.506   0.510   0.515   0.515   0.523   0.524
  0.526   0.528   0.532   0.534   0.538   0.543   0.544   0.550
  0.557   0.562   0.567   0.573   0.579   0.581   0.584   0.588
  0.596   0.605   0.606   0.610   0.616   0.625   0.629   0.637
  0.641   0.646   0.649   0.653   0.655   0.662   0.666   0.671
  0.673   0.677   0.687   0.692   0.697   0.704   0.710   0.717
  0.718   0.727   0.728   0.737   0.739   0.742   0.746   0.756
  0.760   0.765   0.765   0.771   0.775   0.778   0.781   0.789
  0.795   0.796   0.798   0.805   0.812   0.818   0.822   0.824
  0.831   0.832   0.835   0.840   0.844   0.847   0.853   0.855
  0.860   0.865   0.871   0.873   0.879   0.885   0.893   0.898
  0.909   0.910   0.915   0.917   0.922   0.926   0.931   0.938
  0.943   0.948   0.950   0.952   0.957   0.960   0.965   0.972
  0.976   0.981   0.987   0.989   1.000   1.002   1.010   1.015
  1.023   1.026   1.029   1.036   1.048   1.053   1.056   1.059
  1.064   1.071   1.079   1.084   1.088   1.091   1.095   1.097
  1.104   1.105   1.107   1.121   1.124   1.130   1.138   1.142
  1.152   1.157   1.161   1.173   1.176   1.186   1.192   1.193
  1.199   1.201   1.214   1.217   1.230   1.234   1.244   1.250
  1.255   1.264   1.266   1.271   1.282   1.288   1.297   1.299
  1.303   1.311   1.319   1.327   1.332   1.343   1.349   1.354
  1.360   1.362   1.365   1.372   1.381   1.382   1.384   1.390
  1.395   1.401   1.412   1.419   1.424   1.428   1.435   1.442
  1.444   1.451   1.453   1.461   1.475   1.477   1.481   1.487
  1.489   1.499   1.504   1.508   1.511   1.515   1.522   1.533
  1.545   1.550   1.565   1.567   1.573   1.583   1.586   1.593
  1.609   1.614   1.618   1.623   1.633   1.638   1.644   1.645
  1.650   1.661   1.667   1.669   1.681   1.690   1.694   1.704
  1.710   1.712   1.720   1.725   1.728   1.739   1.746   1.750
  1.761   1.767   1.777   1.787   1.789   1.799   1.806   1.810
  1.816   1.824   1.840   1.854   1.867   1.876   1.889   1.890
  1.896   1.902   1.916   1.918   1.934   1.937   1.940   1.945
  1.962   1.969   1.977   1.981   1.986   1.990   1.999   2.009
  2.011   2.022   2.030   2.038   2.044   2.054   2.055   2.071
  2.078   2.088   2.104   2.108   2.112   2.117   2.122   2.133
  2.137   2.151   2.156   2.173   2.178   2.183   2.184   2.199
  2.204   2.212   2.217   2.228   2.232   2.243   2.246   2.257
  2.266   2.278   2.290   2.293   2.295   2.301   2.307   2.317
  2.320   2.329   2.333   2.345   2.348   2.363   2.367   2.372
  2.377   2.382   2.387   2.398   2.404   2.407   2.422   2.427
  2.432   2.442   2.448   2.459   2.460   2.468   2.469   2.480
  2.486   2.499   2.501   2.514   2.518   2.521   2.528   2.531
  2.536   2.539   2.545   2.546   2.558   2.565   2.573   2.589
  2.606   2.611   2.629   2.632   2.639   2.642   2.656   2.661
  2.664   2.669   2.681   2.682   2.694   2.701   2.716   2.723
  2.731   2.733   2.747   2.755   2.758   2.766   2.775   2.778
  2.786   2.790   2.795   2.804   2.809   2.815   2.822   2.827
  2.834   2.845   2.855   2.864   2.868   2.873   2.878   2.886
  2.887   2.893   2.901   2.911   2.913   2.919   2.924   2.933
  2.935   2.946   2.948   2.953   2.958   2.962   2.976   2.978
  2.981   2.989   3.002   3.005   3.008   3.011   3.020   3.025
  3.028   3.030   3.034   3.044   3.046   3.054   3.057   3.062
  3.064   3.067   3.070   3.072   3.080   3.083   3.085   3.088
  3.091   3.095   3.102   3.106   3.117   3.121   3.124   3.135
  3.142   3.146   3.152   3.158   3.160   3.164   3.166   3.171
  3.175   3.182   3.188   3.191   3.197   3.199   3.206   3.207
  3.211   3.213   3.221   3.222   3.234   3.235   3.237   3.242
  3.248   3.249   3.253   3.258   3.260   3.267   3.268   3.277
  3.281   3.284   3.287   3.293   3.297   3.297   3.303   3.307
  3.312   3.320   3.322   3.328   3.331   3.334   3.338   3.346
  3.352   3.356   3.360   3.374   3.380   3.388   3.391   3.399
  3.401   3.402   3.407   3.417   3.420   3.425   3.430   3.437
  3.439   3.449   3.455   3.463   3.466   3.468   3.476   3.477
  3.482   3.490   3.497   3.502   3.507   3.510   3.511   3.518
  3.522   3.526   3.536   3.547   3.566   3.568   3.572   3.582
  3.589   3.603   3.609   3.616   3.621   3.625   3.631   3.637
  3.658   3.666   3.667   3.681   3.689   3.691   3.698   3.704
  3.712   3.714   3.722   3.737   3.739   3.742   3.751   3.758
  3.767   3.773   3.778   3.785   3.795   3.803   3.807   3.815
  3.821   3.825   3.834   3.840   3.847   3.857   3.875   3.879
  3.888   3.900   3.905   3.913   3.917   3.921   3.931   3.934
  3.936   3.938   3.939   3.946   3.955   3.960   3.975   3.980
  3.989   3.994   4.002   4.011   4.017   4.020   4.027   4.035
  4.052   4.058   4.066   4.068   4.075   4.086   4.093   4.098
  4.099   4.112   4.121   4.133   4.147   4.150   4.161   4.173
  4.174   4.184   4.190   4.200   4.204   4.209   4.211   4.227
  4.229   4.239   4.242   4.248   4.258   4.261   4.269   4.276
  4.288   4.293   4.297   4.305   4.319   4.323   4.330   4.332
  4.341   4.355   4.358   4.364   4.373   4.375   4.385   4.396
  4.405   4.414   4.427   4.434   4.436   4.441   4.446   4.449
  4.467   4.485   4.487   4.498   4.513   4.524   4.527   4.536
  4.547   4.552   4.561   4.565   4.585   4.590   4.605   4.612
  4.625   4.633   4.644   4.652   4.658   4.673   4.684   4.700
  4.710   4.719   4.730   4.737   4.758   4.765   4.772   4.792
  4.795   4.805   4.810   4.815   4.825   4.835   4.846   4.864
  4.873   4.878   4.887   4.896   4.900   4.909   4.918   4.936
  4.937   4.947   4.949   4.967   4.974   4.983   4.984   4.990
  4.994   5.004   5.005   5.014   5.026   5.038   5.046   5.053
  5.070   5.081   5.092   5.099   5.111   5.114   5.117   5.118
  5.131   5.141   5.151   5.157   5.167   5.178   5.181   5.187
  5.204   5.212   5.240   5.263   5.271   5.302   5.305   5.314
  5.325   5.343   5.351   5.375   5.378   5.401   5.420   5.427
  5.452   5.465   5.477   5.489   5.494   5.497   5.509   5.538
  5.556   5.562   5.577   5.590   5.599   5.610   5.613   5.649
  5.675   5.701   5.719   5.720   5.741   5.753   5.759   5.792
  5.798   5.825   5.838   5.859   5.869   5.888   5.906   5.916
  5.946   5.962   6.003   6.017   6.055   6.084   6.131   6.180
  6.200   6.237   6.250   6.267   6.306   6.353   6.383   6.402
  6.446   6.490   6.604   6.874   6.985   7.078   8.070   8.921
  9.751  10.033  10.629  11.137  11.320  11.553  11.999  12.088
 12.391  12.640  12.797  12.854  12.882  12.956  13.125  13.176
 13.328  13.419  13.461  14.025  14.233  14.664  15.062  15.089
 --------------------------------------------------------------
 
          Ground-State Mulliken Net Atomic Charges

     Atom                 Charge (a.u.)
  ----------------------------------------
      1 C                    -0.092240
      2 C                    -0.129371
      3 C                    -0.080435
      4 C                    -0.118084
      5 N                    -0.145296
      6 C                     0.082499
      7 C                     0.100489
      8 N                    -0.177866
      9 C                    -0.016865
     10 C                    -0.080236
     11 N                    -0.217303
     12 C                     0.052104
     13 C                     0.057170
     14 S                     0.406142
     15 N                    -0.305426
     16 C                    -0.070771
     17 S                     0.222519
     18 C                     0.044505
     19 C                    -0.113939
     20 N                    -0.169503
     21 C                     0.049969
     22 C                    -0.028596
     23 C                    -0.050542
     24 N                    -0.128629
     25 C                    -0.146701
     26 S                     0.131474
     27 C                    -0.049565
     28 C                    -0.149511
     29 C                    -0.184472
     30 H                     0.133107
     31 H                     0.120411
     32 H                     0.119847
     33 H                     0.138075
     34 H                     0.138551
     35 H                     0.128463
     36 H                     0.134719
     37 H                     0.132093
     38 H                     0.129192
     39 H                     0.134025
  ----------------------------------------
  Sum of atomic charges =     0.000000

 -----------------------------------------------------------------
                    Cartesian Multipole Moments
 -----------------------------------------------------------------
    Charge (ESU x 10^10)
                 0.0000
    Dipole Moment (Debye)
         X       0.1965      Y       1.0726      Z       1.0112
       Tot       1.4872
    Quadrupole Moments (Debye-Ang)
        XX    -155.2358     XY       6.8261     YY    -167.9622
        XZ      -0.8506     YZ       0.8272     ZZ    -182.2571
    Octopole Moments (Debye-Ang^2)
       XXX     141.2427    XXY      -6.8348    XYY     -19.8378
       YYY      49.4244    XXZ       0.0146    XYZ       5.5695
       YYZ       9.3584    XZZ     -25.5205    YZZ     -12.8217
       ZZZ       3.0891
    Hexadecapole Moments (Debye-Ang^3)
      XXXX  -16440.6259   XXXY     783.3501   XXYY   -3635.8239
      XYYY    -259.5364   YYYY   -3221.2052   XXXZ     -61.1128
      XXYZ      69.9110   XYYZ       7.2879   YYYZ      22.6307
      XXZZ   -3344.6797   XYZZ       7.3468   YYZZ    -706.5062
      XZZZ     -10.5693   YZZZ      -6.9286   ZZZZ    -517.3160
 -----------------------------------------------------------------
 Calculating analytic gradient of the SCF energy
 K construction time:  CPU 2892.93 s  wall 183.34 s
 Gradient of SCF Energy
            1           2           3           4           5           6
    1  -0.0000251   0.0001936  -0.0000646  -0.0002312  -0.0000395   0.0001674
    2  -0.0000995   0.0001379   0.0000814   0.0002906   0.0001151  -0.0002968
    3  -0.0001006   0.0001242   0.0000132  -0.0006167   0.0001454   0.0010855
            7           8           9          10          11          12
    1  -0.0001103  -0.0002299   0.0000695  -0.0001365  -0.0001445   0.0002457
    2  -0.0001889   0.0001072   0.0001234  -0.0002666  -0.0000988   0.0002140
    3  -0.0011111   0.0004835   0.0002198   0.0001764  -0.0001113   0.0002565
           13          14          15          16          17          18
    1  -0.0000193   0.0000661   0.0005255  -0.0004347  -0.0005210  -0.0002798
    2   0.0001849  -0.0003682  -0.0002069   0.0001439   0.0001161   0.0002519
    3  -0.0001041   0.0000336  -0.0000850  -0.0001480  -0.0005195   0.0004358
           19          20          21          22          23          24
    1   0.0016218   0.0007532   0.0000794  -0.0015403  -0.0002770  -0.0000837
    2   0.0011273  -0.0006862   0.0000017  -0.0002720   0.0003295  -0.0007162
    3   0.0003514  -0.0002566  -0.0000256   0.0006047  -0.0000298  -0.0000813
           25          26          27          28          29          30
    1   0.0000853   0.0000043   0.0003168  -0.0001157   0.0003713  -0.0000016
    2  -0.0003435  -0.0003514   0.0001236   0.0001971   0.0002119  -0.0000500
    3  -0.0014156   0.0002251  -0.0000681   0.0002672   0.0000646   0.0000469
           31          32          33          34          35          36
    1  -0.0000487   0.0000574  -0.0000258  -0.0003395   0.0000258   0.0000966
    2  -0.0000988  -0.0000485  -0.0000248   0.0003385  -0.0000382   0.0002064
    3  -0.0000694   0.0000090  -0.0000387  -0.0001356   0.0000113   0.0003746
           37          38          39
    1   0.0000222   0.0000028  -0.0000361
    2  -0.0000689  -0.0001515   0.0000734
    3   0.0000502  -0.0000501  -0.0000118
 Max gradient component =       1.622E-03
 RMS gradient           =       3.865E-04
 Gradient time:  CPU 3349.62 s  wall 214.34 s
 Geometry Optimization Parameters
   NAtoms,    NIC,     NZ,  NCons,   NDum,   NFix, NCnnct, MaxDiis
       39     293       0       3       0       0       0       0

 Cartesian Hessian Update
 Hessian Updated using BFGS Update


** CONSTRAINED OPTIMIZATION IN DELOCALIZED INTERNAL COORDINATES **
   Searching for a Minimum

   Optimization Cycle:   3

                       Coordinates (Angstroms)
     ATOM                X               Y               Z
      1  C         7.6914285472    0.3984375070   -0.3198051034
      2  C         7.0089215241    1.5496519237    0.0383017054
      3  C         6.9552364980   -0.7463837131   -0.5790630180
      4  C         5.6311155777    1.5084470841    0.1249481706
      5  N         5.6329757879   -0.8026302124   -0.4925141284
      6  C         4.9828396875    0.3041323700   -0.1415310905
      7  C         3.5010811205    0.2427092288   -0.0685711815
      8  N         2.8506634347    1.3663205559   -0.1903316251
      9  C         2.7654848488   -0.9683884607    0.1449495130
     10  C         1.4962168374    1.4190168425   -0.1527762347
     11  N         3.2418232606   -2.1971702562    0.3550527571
     12  C         1.3348123820   -0.9076602552    0.1803983003
     13  C         0.6608661789    0.3413669179    0.0184032576
     14  S         1.9710321815   -3.1534467758    0.5518456921
     15  N         0.7670147467   -2.0936945208    0.3960153376
     16  C        -0.7909450335    0.4746570644    0.0513112978
     17  S        -1.8476550297   -0.8766376131   -0.0103064854
     18  C        -1.5575021875    1.6380944781    0.1296801412
     19  C        -3.2758098775    0.0444084782    0.0584145925
     20  N        -1.0783206020    2.9121104284    0.2070459441
     21  C        -2.9657338186    1.3880172331    0.1332106515
     22  C        -4.5979982184   -0.5810592229    0.0567030664
     23  C        -1.9742412676    3.8475035573    0.2777323684
     24  N        -3.8810191930    2.3939611241    0.2099235950
     25  C        -5.3325003882   -0.9859407201    1.1294801245
     26  S        -5.4497881334   -0.8846127147   -1.4149502422
     27  C        -3.3816758017    3.5880722338    0.2779173752
[...]
     39  H        -7.6099039643   -1.9362469126   -1.1584941810
   Point Group: c1    Number of degrees of freedom:   111


   Energy is  -2291.145897177

              Constraints and their Current Values
                                        Value     Constraint
   Dihedral:        4   6   7   8       21.822       21.822
   Dihedral:       10  13  16  17      169.064      169.064
   Dihedral:       17  19  22  25       90.000       90.000
 Hessian Updated using BFGS Update

103 Hessian modes will be used to form the next step
  Hessian Eigenvalues:
     0.009558    0.020728    0.042455    0.045000    0.045000    0.045000
     0.045000    0.045000    0.045000    0.045000    0.045001    0.045001
     0.045001    0.045001    0.045001    0.045002    0.045002    0.045003
     0.045003    0.045006    0.045007    0.045020    0.045028    0.045043
     0.045150    0.045319    0.045533    0.047854    0.155269    0.159523
     0.159893    0.159999    0.160000    0.160003    0.160011    0.160115
     0.160430    0.160672    0.219825    0.222500    0.223902    0.224299
     0.231483    0.233959    0.242216    0.244206    0.245574    0.247541
     0.249638    0.249769    0.249942    0.249959    0.249973    0.249986
     0.250170    0.251484    0.255605    0.288386    0.305240    0.318783
     0.331762    0.335067    0.342156    0.354161    0.354495    0.355782
     0.357116    0.359033    0.360671    0.360996    0.361654    0.364173
     0.364911    0.368658    0.373719    0.375304    0.382815    0.400302
     0.403553    0.409987    0.428711    0.432501    0.436463    0.456014
     0.460910    0.471534    0.474170    0.480454    0.482257    0.485787
     0.488200    0.504403    0.509710    0.522307    0.527019    0.558149
     0.572601    0.580741    0.589720    0.639331    0.650176    0.661433
     0.704471

 Minimum Search - Taking Simple RFO Step
 Searching for Lamda that Minimizes Along All modes
 Value Taken    Lamda =   0.00000000
 Step Taken.  Stepsize is  0.002326

                             Maximum     Tolerance    Cnvgd?
         Gradient           0.000075      0.000300     YES
         Displacement       0.001021      0.001200     YES
         Energy change      0.000000      0.000001     YES

 Final energy is   -2291.14589717667     


 ******************************
 **  OPTIMIZATION CONVERGED  **
 ******************************

                       Coordinates (Angstroms)
     ATOM                X               Y               Z
      1  C         7.6895193265    0.3798424325   -0.3721212330
      2  C         7.0226892562    1.5308631828    0.0145090357
      3  C         6.9398796731   -0.7563358880   -0.6315014393
      4  C         5.6467824198    1.4982885849    0.1285481755
      5  N         5.6192096418   -0.8043238841   -0.5190023176
      6  C         4.9844072826    0.3022561700   -0.1394637753
      7  C         3.5037598805    0.2501839217   -0.0441330972
      8  N         2.8577470610    1.3783034178   -0.1442931921
      9  C         2.7651872496   -0.9585684363    0.1724097590
     10  C         1.5034576149    1.4359185175   -0.0947562726
     11  N         3.2391989534   -2.1887604609    0.3786911354
     12  C         1.3356013185   -0.8920572143    0.2244795420
     13  C         0.6650264249    0.3597066821    0.0729605291
     14  S         1.9664956080   -3.1392438894    0.5913238296
     15  N         0.7648222782   -2.0750101285    0.4480496629
     16  C        -0.7871529785    0.4891675160    0.1000505895
     17  S        -1.8353438533   -0.8693504581    0.0341296329
     18  C        -1.5623926957    1.6483644315    0.1540358710
     19  C        -3.2708871744    0.0431843046    0.0674935093
     20  N        -1.0932776804    2.9267591270    0.2287528486
     21  C        -2.9695441385    1.3898217845    0.1357031081
     22  C        -4.5872012105   -0.5897723411    0.0497942461
     23  C        -1.9954410243    3.8569764610    0.2750586947
     24  N        -3.8917223787    2.3918255775    0.1870988304
     25  C        -5.3376716154   -0.9872019190    1.1153208418
     26  S        -5.4176192552   -0.9030498366   -1.4323416395
     27  C        -3.4013708609    3.5893576825    0.2527521102
     28  C        -6.5841091068   -1.5477820946    0.7396575170
     29  C        -6.7611832318   -1.5679015211   -0.6076666654
     30  H         8.7650598585    0.3596095649   -0.4764275819
     31  H         7.5680368696    2.4413532308    0.2225726222
     32  H         7.4221351672   -1.6728106374   -0.9514419804
     33  H         5.0757189955    2.3678897032    0.4150954265
     34  H         1.0827971529    2.4240473450   -0.1942026624
     35  H        -1.6512665062    4.8837764186    0.3358053464
     36  H        -5.0025817332   -0.8734923187    2.1352280823
     37  H        -4.0989891570    4.4187038836    0.2953508096
     38  H        -7.3158680705   -1.9153427320    1.4424743965
     39  H        -7.6099039643   -1.9362469126   -1.1584941810

Z-matrix Print:
$molecule
0 1
S 
C  1 1.701358
C  2 1.381627 1 109.859257
N  3 1.362742 2 124.815178 1 179.507347 0
C  4 1.295700 3 115.175402 2 -179.750115 0
H  5 1.084574 4 117.730067 3 -179.993132 0
C  3 1.430823 2 113.032330 1 -0.232206 0
N  7 1.363798 3 120.555162 2 179.549110 0
C  8 1.296668 7 115.791611 3 0.245386 0
H  9 1.084649 8 117.410080 7 -179.943809 0
C  7 1.395582 3 113.310954 2 0.031893 0
C  11 1.458190 7 128.878312 3 -178.664020 0
C  12 1.374528 11 122.698377 7 9.637912 0
H  13 1.078538 12 119.385129 11 -1.106428 0
N  13 1.356419 12 125.465915 11 179.181127 0
C  15 1.303847 13 121.913223 12 -0.609518 0
C  12 1.428125 11 122.919525 7 -170.052744 0
N  17 1.332348 12 126.503684 11 2.285640 0
C  17 1.432079 12 120.370019 11 -179.218647 0
N  19 1.334396 17 113.066769 12 -177.719883 0
C  2 1.460695 1 121.850701 3 178.912752 0
C  21 1.362536 2 127.826011 1 -90.000000 0
H  22 1.079549 21 122.488221 2 0.731339 0
C  22 1.417385 21 113.107430 2 -178.947978 0
H  24 1.079131 22 123.946090 21 179.746498 0
C  24 1.359059 22 112.531030 21 -0.020427 0
H  26 1.076762 24 127.944961 22 -179.987310 0
C  16 1.484627 15 117.313491 13 -178.782413 0
N  28 1.330993 16 117.697941 15 156.320697 0
C  29 1.326321 28 117.970226 16 -178.694684 0
H  30 1.083909 29 115.942648 28 179.450723 0
C  30 1.385691 29 123.536661 28 -0.177479 0
H  32 1.080776 30 120.328071 29 -179.729853 0
C  32 1.385278 30 118.236389 29 0.571729 0
H  34 1.081521 32 120.694836 30 179.728224 0
C  34 1.381009 32 118.884086 30 -0.174964 0
H  36 1.079087 34 122.017220 32 179.304895 0
S  20 1.602624 19 106.569486 17 -0.753030 0
S  26 1.710930 24 111.701647 22 0.131666 0
$end

 
 --------------------------------------------------------------
 
                    Orbital Energies (a.u.)
 --------------------------------------------------------------
 
 Alpha MOs
 -- Occupied --
-89.147 -89.099 -89.077 -14.483 -14.480 -14.461 -14.459 -14.446
-14.435 -10.356 -10.353 -10.351 -10.344 -10.343 -10.342 -10.340
-10.338 -10.337 -10.336 -10.331 -10.331 -10.327 -10.324 -10.317
-10.310 -10.301 -10.299 -10.295 -10.294  -8.157  -8.113  -8.092
 -6.107  -6.101  -6.101  -6.062  -6.058  -6.057  -6.042  -6.038
 -6.035  -1.144  -1.100  -1.069  -1.049  -1.028  -1.013  -1.003
 -0.986  -0.925  -0.912  -0.896  -0.877  -0.867  -0.852  -0.838
 -0.811  -0.777  -0.771  -0.749  -0.738  -0.730  -0.716  -0.710
 -0.670  -0.657  -0.645  -0.630  -0.628  -0.620  -0.608  -0.604
 -0.586  -0.576  -0.568  -0.561  -0.559  -0.545  -0.543  -0.527
 -0.512  -0.507  -0.499  -0.498  -0.493  -0.491  -0.485  -0.481
 -0.475  -0.468  -0.463  -0.461  -0.449  -0.438  -0.428  -0.425
 -0.420  -0.410  -0.394  -0.376  -0.371  -0.360  -0.357  -0.343
 -0.337  -0.337  -0.334  -0.332  -0.318  -0.279
 -- Virtual --
 -0.053  -0.021   0.025   0.041   0.043   0.051   0.063   0.071
  0.083   0.100   0.104   0.114   0.122   0.124   0.129   0.132
  0.149   0.153   0.158   0.164   0.175   0.175   0.183   0.187
  0.190   0.205   0.208   0.216   0.222   0.230   0.237   0.246
  0.256   0.262   0.271   0.273   0.275   0.284   0.286   0.291
  0.297   0.304   0.307   0.310   0.318   0.322   0.325   0.327
  0.333   0.339   0.341   0.345   0.347   0.349   0.353   0.355
  0.361   0.365   0.371   0.376   0.379   0.383   0.385   0.388
  0.389   0.391   0.394   0.396   0.400   0.401   0.408   0.412
  0.416   0.418   0.419   0.430   0.431   0.434   0.436   0.438
  0.442   0.445   0.448   0.451   0.454   0.458   0.461   0.463
  0.467   0.469   0.474   0.477   0.483   0.488   0.490   0.496
  0.500   0.503   0.506   0.510   0.515   0.515   0.523   0.525
  0.526   0.528   0.532   0.533   0.538   0.542   0.544   0.550
  0.557   0.563   0.568   0.573   0.579   0.582   0.584   0.589
  0.596   0.605   0.607   0.610   0.615   0.624   0.630   0.636
  0.641   0.646   0.649   0.653   0.655   0.662   0.665   0.671
  0.673   0.677   0.688   0.692   0.698   0.705   0.710   0.717
  0.718   0.726   0.728   0.737   0.739   0.742   0.746   0.756
  0.760   0.765   0.765   0.771   0.775   0.778   0.781   0.789
  0.795   0.797   0.798   0.806   0.811   0.817   0.821   0.825
  0.830   0.832   0.835   0.839   0.844   0.848   0.852   0.855
  0.861   0.865   0.871   0.874   0.879   0.886   0.891   0.898
  0.909   0.910   0.916   0.917   0.922   0.925   0.931   0.938
  0.942   0.948   0.949   0.953   0.957   0.961   0.966   0.972
  0.976   0.981   0.987   0.990   1.000   1.002   1.010   1.015
  1.024   1.026   1.030   1.037   1.046   1.053   1.057   1.059
  1.064   1.072   1.079   1.085   1.088   1.091   1.096   1.097
  1.105   1.106   1.107   1.121   1.124   1.130   1.139   1.143
  1.153   1.156   1.161   1.173   1.176   1.186   1.192   1.194
  1.199   1.201   1.214   1.217   1.230   1.234   1.245   1.250
  1.256   1.264   1.266   1.274   1.283   1.288   1.297   1.300
  1.303   1.312   1.319   1.326   1.332   1.342   1.350   1.353
  1.360   1.362   1.365   1.372   1.380   1.382   1.384   1.390
  1.395   1.401   1.412   1.418   1.425   1.427   1.435   1.442
  1.444   1.451   1.453   1.461   1.475   1.477   1.481   1.486
  1.489   1.500   1.503   1.507   1.511   1.515   1.523   1.533
  1.545   1.551   1.566   1.568   1.572   1.583   1.586   1.592
  1.608   1.615   1.618   1.623   1.632   1.638   1.644   1.645
  1.650   1.661   1.668   1.669   1.681   1.691   1.694   1.704
  1.710   1.711   1.720   1.726   1.729   1.739   1.746   1.750
  1.761   1.766   1.777   1.787   1.789   1.799   1.805   1.811
  1.816   1.825   1.841   1.855   1.867   1.876   1.888   1.890
  1.896   1.902   1.917   1.918   1.934   1.937   1.942   1.946
  1.961   1.969   1.977   1.979   1.986   1.990   1.999   2.009
  2.011   2.022   2.031   2.039   2.044   2.054   2.054   2.071
  2.078   2.088   2.102   2.108   2.113   2.118   2.122   2.134
  2.137   2.151   2.156   2.172   2.177   2.183   2.184   2.200
  2.203   2.212   2.218   2.228   2.232   2.245   2.247   2.258
  2.266   2.278   2.290   2.293   2.296   2.301   2.307   2.317
  2.321   2.329   2.333   2.344   2.348   2.363   2.366   2.372
  2.377   2.382   2.386   2.397   2.405   2.407   2.421   2.427
  2.433   2.442   2.448   2.458   2.460   2.468   2.469   2.480
  2.485   2.499   2.502   2.514   2.518   2.520   2.528   2.532
  2.536   2.540   2.545   2.547   2.557   2.566   2.572   2.588
  2.604   2.611   2.628   2.632   2.639   2.642   2.657   2.661
  2.665   2.670   2.681   2.681   2.694   2.701   2.716   2.722
  2.731   2.733   2.747   2.755   2.758   2.765   2.774   2.777
  2.786   2.790   2.796   2.803   2.809   2.815   2.822   2.828
  2.835   2.845   2.855   2.865   2.869   2.873   2.879   2.886
  2.887   2.893   2.901   2.911   2.914   2.920   2.925   2.933
  2.936   2.946   2.948   2.953   2.958   2.962   2.976   2.978
  2.981   2.988   3.002   3.005   3.009   3.012   3.020   3.024
  3.028   3.029   3.034   3.043   3.046   3.052   3.057   3.062
  3.063   3.067   3.069   3.072   3.080   3.083   3.085   3.089
  3.092   3.094   3.102   3.106   3.118   3.121   3.124   3.135
  3.142   3.146   3.152   3.158   3.159   3.165   3.166   3.171
  3.175   3.182   3.189   3.190   3.196   3.199   3.207   3.207
  3.212   3.213   3.221   3.222   3.233   3.235   3.238   3.242
  3.248   3.249   3.254   3.259   3.260   3.267   3.268   3.277
  3.282   3.284   3.287   3.292   3.298   3.298   3.302   3.307
  3.312   3.320   3.321   3.328   3.331   3.334   3.338   3.346
  3.352   3.355   3.360   3.374   3.380   3.389   3.391   3.398
  3.399   3.403   3.407   3.416   3.420   3.425   3.431   3.437
  3.439   3.449   3.454   3.463   3.466   3.468   3.475   3.477
  3.481   3.489   3.497   3.502   3.507   3.510   3.512   3.518
  3.523   3.526   3.536   3.548   3.564   3.568   3.572   3.581
  3.589   3.603   3.609   3.616   3.622   3.625   3.632   3.637
  3.658   3.667   3.667   3.680   3.689   3.691   3.699   3.703
  3.712   3.714   3.722   3.736   3.739   3.743   3.751   3.758
  3.766   3.774   3.778   3.785   3.795   3.802   3.807   3.815
  3.821   3.824   3.834   3.839   3.848   3.858   3.874   3.880
  3.887   3.899   3.905   3.913   3.917   3.921   3.931   3.934
  3.936   3.938   3.939   3.945   3.955   3.960   3.975   3.980
  3.989   3.993   4.002   4.012   4.017   4.019   4.028   4.034
  4.053   4.058   4.066   4.068   4.075   4.086   4.093   4.097
  4.099   4.112   4.121   4.133   4.147   4.150   4.161   4.172
  4.175   4.185   4.189   4.200   4.203   4.208   4.211   4.227
  4.228   4.239   4.243   4.248   4.257   4.262   4.268   4.276
  4.287   4.293   4.297   4.305   4.319   4.323   4.329   4.332
  4.342   4.354   4.358   4.364   4.373   4.374   4.385   4.396
  4.406   4.413   4.428   4.434   4.436   4.441   4.447   4.449
  4.466   4.485   4.487   4.497   4.513   4.524   4.528   4.536
  4.546   4.552   4.562   4.565   4.585   4.589   4.606   4.612
  4.625   4.633   4.644   4.651   4.659   4.673   4.684   4.700
  4.709   4.720   4.730   4.737   4.757   4.765   4.772   4.792
  4.795   4.806   4.810   4.815   4.826   4.836   4.846   4.865
  4.873   4.879   4.887   4.896   4.899   4.909   4.918   4.935
  4.937   4.948   4.949   4.967   4.974   4.983   4.984   4.990
  4.994   5.004   5.006   5.013   5.026   5.038   5.046   5.052
  5.070   5.081   5.092   5.101   5.111   5.114   5.117   5.119
  5.132   5.142   5.149   5.156   5.167   5.178   5.180   5.188
  5.205   5.212   5.240   5.263   5.271   5.302   5.305   5.314
  5.325   5.343   5.351   5.375   5.377   5.401   5.420   5.427
  5.451   5.465   5.476   5.490   5.494   5.497   5.509   5.538
  5.557   5.561   5.577   5.590   5.599   5.611   5.613   5.649
  5.675   5.701   5.719   5.719   5.741   5.753   5.758   5.791
  5.797   5.824   5.837   5.859   5.868   5.888   5.907   5.917
  5.946   5.961   6.001   6.017   6.055   6.083   6.131   6.180
  6.200   6.237   6.250   6.268   6.307   6.354   6.382   6.402
  6.446   6.488   6.604   6.874   6.985   7.077   8.068   8.919
  9.755  10.037  10.627  11.139  11.317  11.555  12.002  12.097
 12.392  12.639  12.795  12.857  12.878  12.953  13.121  13.173
 13.327  13.418  13.452  14.021  14.242  14.663  15.063  15.092
 --------------------------------------------------------------
 
          Ground-State Mulliken Net Atomic Charges

     Atom                 Charge (a.u.)
  ----------------------------------------
      1 C                    -0.092237
      2 C                    -0.129174
      3 C                    -0.080347
      4 C                    -0.118180
      5 N                    -0.145824
      6 C                     0.082713
      7 C                     0.100770
      8 N                    -0.177662
      9 C                    -0.017789
     10 C                    -0.080497
     11 N                    -0.217247
     12 C                     0.053095
     13 C                     0.057924
     14 S                     0.405740
     15 N                    -0.305453
     16 C                    -0.070344
     17 S                     0.222071
     18 C                     0.044237
     19 C                    -0.112854
     20 N                    -0.169332
     21 C                     0.049341
     22 C                    -0.029141
     23 C                    -0.050372
     24 N                    -0.128609
     25 C                    -0.146963
     26 S                     0.131713
     27 C                    -0.049687
     28 C                    -0.149429
     29 C                    -0.184662
     30 H                     0.133144
     31 H                     0.120399
     32 H                     0.119782
     33 H                     0.137843
     34 H                     0.138325
     35 H                     0.128305
     36 H                     0.135041
     37 H                     0.132136
     38 H                     0.129107
     39 H                     0.134115
  ----------------------------------------
  Sum of atomic charges =     0.000000

 -----------------------------------------------------------------
                    Cartesian Multipole Moments
 -----------------------------------------------------------------
    Charge (ESU x 10^10)
                 0.0000
    Dipole Moment (Debye)
         X       0.2175      Y       1.0495      Z       0.9653
       Tot       1.4424
    Quadrupole Moments (Debye-Ang)
        XX    -154.9484     XY       6.6682     YY    -168.0374
        XZ      -1.0755     YZ       0.7848     ZZ    -182.2047
    Octopole Moments (Debye-Ang^2)
       XXX     141.9571    XXY      -6.9671    XYY     -21.3915
       YYY      48.3416    XXZ      -4.3670    XYZ       5.2743
       YYZ       7.1372    XZZ     -25.4063    YZZ     -13.3302
       ZZZ      -1.6554
    Hexadecapole Moments (Debye-Ang^3)
      XXXX  -16415.5694   XXXY     781.0794   XXYY   -3627.4404
      XYYY    -262.0070   YYYY   -3223.0984   XXXZ     -89.0256
      XXYZ      75.8569   XYYZ       8.7929   YYYZ      21.9452
      XXZZ   -3335.1165   XYZZ       7.7532   YYZZ    -708.5800
      XZZZ     -10.6990   YZZZ      -3.9850   ZZZZ    -529.7497
 -----------------------------------------------------------------
Archival summary:
1\1\mn214\OPT\ProcedureUnspecified\BasisUnspecified\362010\afmv_a\SatJun1711:17:122017SatJun1711:17:122017\0\\#,OPT,ProcedureUnspecified,BasisUnspecified,\\0,1\S\C,1,1.70136\C,2,1.38163,1,109.859\N,3,1.36274,2,124.815,1,179.507,0\C,4,1.2957,3,115.175,2,-179.75,0\H,5,1.08457,4,117.73,3,-179.993,0\C,3,1.43082,2,113.032,1,-0.232206,0\N,7,1.3638,3,120.555,2,179.549,0\C,8,1.29667,7,115.792,3,0.245386,0\H,9,1.08465,8,117.41,7,-179.944,0\C,7,1.39558,3,113.311,2,0.0318928,0\C,11,1.45819,7,128.878,3,-178.664,0\C,12,1.37453,11,122.698,7,9.63791,0\H,13,1.07854,12,119.385,11,-1.10643,0\N,13,1.35642,12,125.466,11,179.181,0\C,15,1.30385,13,121.913,12,-0.609518,0\C,12,1.42813,11,122.92,7,-170.053,0\N,17,1.33235,12,126.504,11,2.28564,0\C,17,1.43208,12,120.37,11,-179.219,0\N,19,1.3344,17,113.067,12,-177.72,0\C,2,1.4607,1,121.851,3,178.913,0\C,21,1.36254,2,127.826,1,-90,0\H,22,1.07955,21,122.488,2,0.731339,0\C,22,1.41738,21,113.107,2,-178.948,0\H,24,1.07913,22,123.946,21,179.746,0\C,24,1.35906,22,112.531,21,-0.0204274,0\H,26,1.07676,24,127.945,22,-179.987,0\C,16,1.48463,15,117.313,13,-178.782,0\N,28,1.33099,16,117.698,15,156.321,0\C,29,1.32632,28,117.97,16,-178.695,0\H,30,1.08391,29,115.943,28,179.451,0\C,30,1.38569,29,123.537,28,-0.177479,0\H,32,1.08078,30,120.328,29,-179.73,0\C,32,1.38528,30,118.236,29,0.571729,0\H,34,1.08152,32,120.695,30,179.728,0\C,34,1.38101,32,118.884,30,-0.174964,0\H,36,1.07909,34,122.017,32,179.305,0\S,20,1.60262,19,106.569,17,-0.75303,0\S,26,1.71093,24,111.702,22,0.131666,0\\\@

 Total job time:  7250.57s(wall), 108280.40s(cpu) 
 Sat Jun 17 11:17:12 2017

        *************************************************************
        *                                                           *
        *  Thank you very much for using Q-Chem.  Have a nice day.  *
        *                                                           *
        *************************************************************


