
Running Job 1 of 1 C169_3/C169_195.qcin
qchem C169_3/C169_195.qcin_35677.0 /tmpu/cab_g/afmv_a/scratch_qchem/qchem35677/ 1
/tmpu/appuserlic/qchem4.4/serial-multicore/exe/qcprog.exe_s C169_3/C169_195.qcin_35677.0 /tmpu/cab_g/afmv_a/scratch_qchem/qchem35677/
Check license passed

                  Welcome to Q-Chem
     A Quantum Leap Into The Future Of Chemistry


 Q-Chem 4.4, Q-Chem, Inc., Pleasanton, CA (2016)

 Y. Shao,  Z. Gan,  E. Epifanovsky,  A. T. B. Gilbert,  M. Wormit,  
 J. Kussmann,  A. W. Lange,  A. Behn,  J. Deng,  X. Feng,  D. Ghosh,  
 M. Goldey,  P. R. Horn,  L. D. Jacobson,  I. Kaliman,  F. Rob,  
 R. Z. Khaliullin,  T. Kus,  A. Landau,  J. Liu,  E. I. Proynov,  Y. M. Rhee,  
 R. M. Richard,  M. A. Rohrdanz,  R. P. Steele,  E. J. Sundstrom,  
 H. L. Woodcock III,  P. M. Zimmerman,  D. Zuev,  B. Albrecht,  E. Alguire,  
 B. Austin,  S. A. Baeppler,  G. J. O. Beran,  Y. A. Bernard,  E. Berquist,  
 K. Brandhorst,  K. B. Bravaya,  S. T. Brown,  D. Casanova,  C.-M. Chang,  
 Y. Chen,  S. H. Chien,  K. D. Closser,  M. P. Coons,  D. L. Crittenden,  
 S. Dasgupta,  M. Diedenhofen,  R. A. DiStasio Jr.,  H. Do,  A. D. Dutoi,  
 R. G. Edgar,  P.-T. Fang,  S. Fatehi,  Q. Feng,  L. Fusti-Molnar,  
 A. Ghysels,  A. Golubeva-Zadorozhnaya,  J. Gomes,  A. Gunina,  
 M. W. D. Hanson-Heine,  P. H. P. Harbach,  A. W. Hauser,  J. E. Herr,  
 E. G. Hohenstein,  Z. C. Holden,  K. Hui,  T.-C. Jagau,  H. Ji,  B. Kaduk,  
 K. Khistyaev,  Jaehoon Kim,  Jihan Kim,  R. A. King,  P. Klunzinger,  
 K. Koh,  D. Kosenkov,  T. Kowalczyk,  C. M. Krauter,  A. Kunitsa,  
 K. U. Lao,  A. Laurent,  K. V. Lawler,  J. Lee,  D. Lefrancois,  S. Lehtola,  
 S. V. Levchenko,  C. Y. Lin,  Y.-S. Lin,  F. Liu,  E. Livshits,  
 R. C. Lochan,  A. Luenser,  P. Manohar,  S. F. Manzer,  S.-P. Mao,  Y. Mao,  
 N. Mardirossian,  A. V. Marenich,  L. A. Martinez-Martinez,  S. A. Maurer,  
 N. J. Mayhall,  J.-M. Mewes,  A. F. Morrison,  K. Nanda,  T. S. Nguyen-Beck,  
 C. M. Oana,  R. Olivares-Amaya,  D. P. O'Neill,  J. A. Parkhill,  
 T. M. Perrine,  R. Peverati,  P. A. Pieniazek,  F. Plasser,  A. Prociuk,  
 D. R. Rehn,  E. Rosta,  N. J. Russ,  N. Sergueev,  S. M. Sharada,  
 S. Sharma,  D. W. Small,  A. Sodt,  T. Stauch,  T. Stein,  D. Stuck,  
 Y.-C. Su,  A. J. W. Thom,  T. Tsuchimochi,  L. Vogt,  O. Vydrov,  T. Wang,  
 M. A. Watson,  J. Wenzel,  A. White,  C. F. Williams,  V. Vanovschi,  
 K. Yao,  S. Yeganeh,  S. R. Yost,  Z.-Q. You,  I. Y. Zhang,  X. Zhang,  
 Y. Zhao,  B. R. Brooks,  G. K. L. Chan,  D. M. Chipman,  C. J. Cramer,  
 W. A. Goddard III,  M. S. Gordon,  W. J. Hehre,  A. Klamt,  
 H. F. Schaefer III,  M. W. Schmidt,  C. D. Sherrill,  D. G. Truhlar,  
 A. Warshel,  X. Xu,  A. Aspuru-Guzik,  R. Baer,  A. T. Bell,  N. A. Besley,  
 J.-D. Chai,  A. Dreuw,  B. D. Dunietz,  T. R. Furlani,  S. R. Gwaltney,  
 C.-P. Hsu,  Y. Jung,  J. Kong,  D. S. Lambrecht,  W. Liang,  C. Ochsenfeld,  
 V. A. Rassolov,  L. V. Slipchenko,  J. E. Subotnik,  T. Van Voorhis,  
 J. M. Herbert,  A. I. Krylov,  P. M. W. Gill,  M. Head-Gordon

 Contributors to earlier versions of Q-Chem not listed above: 
 R. D. Adamson,  J. Baker,  E. F. C. Byrd,  A. K. Chakraborty,  C.-L. Cheng,  
 H. Dachsel,  R. J. Doerksen,  G. Hawkins,  A. Heyden,  S. Hirata,  
 G. Kedziora,  F. J. Keil,  C. Kelley,  P. P. Korambath,  W. Kurlancheek,  
 A. M. Lee,  M. S. Lee,  D. Liotard,  I. Lotan,  P. E. Maslen,  N. Nair,  
 D. Neuhauser,  R. Olson,  B. Peters,  J. Ritchie,  N. E. Schultz,  
 N. Shenvi,  A. C. Simmonett,  K. S. Thanthiriwatte,  Q. Wu,  W. Zhang

 Please cite Q-Chem as follows:
 Y. Shao et al., Mol. Phys. 113, 184-215 (2015)
 DOI: 10.1080/00268976.2014.952696

 Q-Chem 4.4.2 for Intel X86 Linux

 Parts of Q-Chem use Armadillo 5.200.1 (Boston Tea Smuggler).
 http://arma.sourceforge.net/

 Q-Chem begins on Sat Jun 17 16:47:59 2017  

Host: 
0

     Scratch files written to /tmpu/cab_g/afmv_a/scratch_qchem/qchem35677//
 Dec716 11556_ 22328  22283 4050   
Processing $rem in /tmpu/appuserlic/qchem4.4/serial-multicore/config/preferences.
 MEM_TOTAL  2000 
FILE_GEOM_ORG=        593

Checking the input file for inconsistencies... 	...done.

--------------------------------------------------------------
User input:
--------------------------------------------------------------
$comment
OPTIMIZATION
$end

$rem
JOBTYPE OPT
EXCHANGE omegaB97X-D
BASIS cc-pVTZ
$end

$molecule
0 1
C          0.00000        0.00000        0.00000
C         -0.65396       -1.22126       -0.00000
C          1.38563        0.00000        0.00000
C          0.09526       -2.37957        0.00866
N          2.11912       -1.10562        0.01199
C          1.48546       -2.27640        0.02149
C          2.30642       -3.51253        0.03449
N          1.74513       -4.60745       -0.39909
C          3.65824       -3.56714        0.50995
C          2.40434       -5.79109       -0.42442
N          4.38617       -2.58332        1.04242
C          4.35289       -4.81920        0.47143
C          3.70163       -5.99343       -0.01477
S          5.80914       -3.21778        1.41887
N          5.59255       -4.74484        0.95148
C          4.33823       -7.30129       -0.04468
S          6.02589       -7.51949        0.20234
C          3.75434       -8.55173       -0.24928
C          5.99762       -9.21427        0.01351
N          2.43078       -8.79033       -0.46746
C          4.69159       -9.63209       -0.21260
C          7.19111      -10.02404        0.10954
C          2.09912      -10.03238       -0.63993
N          4.30733      -10.92364       -0.39820
C          7.36011      -11.32132       -0.28999
S          8.66322       -9.40042        0.78252
C          3.03978      -11.10696       -0.60697
C          8.66438      -11.81213       -0.04248
C          9.47483      -10.88826        0.53850
H         -0.54853        0.93120        0.00000
H         -1.73532       -1.26909       -0.00410
H          1.93662        0.93286       -0.01167
H         -0.36319       -3.35650        0.00329
H          1.82722       -6.62671       -0.78554
H          1.05088      -10.24576       -0.82054
H          6.56808      -11.88646       -0.75164
H          2.69937      -12.12548       -0.75876
H          8.97887      -12.81591       -0.28449
H         10.50528      -11.00042        0.82929
$end

$opt
CONSTRAINT
tors 4 6 7 8 21.82164
tors 10 13 16 17 169.06444
tors 17 19 22 25 -165.00000
ENDCONSTRAINT
$end
--------------------------------------------------------------
 ----------------------------------------------------------------
             Standard Nuclear Orientation (Angstroms)
    I     Atom           X                Y                Z
 ----------------------------------------------------------------
    1      C       7.6794152865     0.3449089758    -0.1508144788
    2      C       6.9946540143     1.5035561463     0.1774817344
    3      C       6.9409336857    -0.7867005796    -0.4575313453
    4      C       5.6154015390     1.4817518195     0.1940600592
    5      N       5.6146767648    -0.8234956030    -0.4421810795
    6      C       4.9618975395     0.2902165498    -0.1168111703
    7      C       3.4786094626     0.2484620554    -0.1002358395
    8      N       2.8472219175     1.3827471013    -0.2292129287
    9      C       2.7164733046    -0.9547368631     0.0668647744
   10      C       1.4941855874     1.4564942509    -0.2216544808
   11      N       3.1659908219    -2.1947355716     0.2709367782
   12      C       1.2865338963    -0.8714146875     0.0641518288
   13      C       0.6354917814     0.3909768456    -0.0836923540
   14      S       1.8743868003    -3.1330216765     0.4140309841
   15      N       0.6933380004    -2.0502001846     0.2411199294
   16      C      -0.8106391421     0.5479419714    -0.0568735317
   17      S      -1.8923522811    -0.7847853979    -0.1596394790
   18      C      -1.5593833945     1.7189943519     0.0631566826
   19      C      -3.3130189295     0.1555327857    -0.0806255682
   20      N      -1.0579383801     2.9802747230     0.1817664160
   21      C      -2.9726282052     1.4962735130     0.0533972004
   22      C      -4.6333200377    -0.4307066264    -0.1305848427
   23      C      -1.9337055726     3.9324553399     0.2756618706
   24      N      -3.8623683509     2.5202371630     0.1537237997
   25      C      -5.8248109319     0.2015549067    -0.3579950933
   26      S      -4.8838407071    -2.1318157946     0.0982793730
   27      C      -3.3439128272     3.7049883058     0.2606945304
   28      C      -6.9328410890    -0.6787807517    -0.3344538804
   29      C      -6.5775639195    -1.9684827097    -0.0928969885
   30      H       8.7596359381     0.3166473732    -0.1693408567
   31      H       7.5304652182     2.4122333505     0.4200844152
   32      H       7.4364504386    -1.7106414173    -0.7309365843
   33      H       5.0331154116     2.3572119285     0.4371853923
   34      H       1.0913160299     2.4517220494    -0.3162783779
   35      H      -1.5572979707     4.9459451936     0.3657381038
   36      H      -5.8852506605     1.2608459881    -0.5425619023
   37      H      -4.0256934088     4.5444681020     0.3428594435
   38      H      -7.9520438319    -0.3575565473    -0.4864008051
   39      H      -7.2188758595    -2.8304171124    -0.0239479249
 ----------------------------------------------------------------
 Molecular Point Group                 C1    NOp =  1
 Largest Abelian Subgroup              C1    NOp =  1
 Nuclear Repulsion Energy =  2931.0707462664 hartrees
 There are      110 alpha and      110 beta electrons
 Requested basis set is cc-pVTZ
 There are 356 shells and 1022 basis functions

 Total QAlloc Memory Limit   2000 MB
 Mega-Array Size        61 MB
 MEM_STATIC part        62 MB
 A cutoff of  1.0D-11 yielded  30940 shell pairs
 There are    244100 function pairs (    318601 Cartesian)
 
 -------------------------------------------------------
 OpenMP Integral Computing Module                       
 Release: version 1.0, May 2013, Q-Chem Inc. Pittsburgh 
 -------------------------------------------------------
 Integral Job Info:
 Integral job number is                      11
 Integral operator is                         1
 short-range coefficients              22203600
 long-range coefficients              100000000
 Omega coefficients                         200
 if combine SR and LR in K                    1
 Integral screening is                        0
 Integral computing path is                   2
 max size of driver memory is            800000
 size of driver memory is                776718
 size of scratch memory is             26248924
 max col of scratch BK array              10000
 max len of scratch array in speh3          662
 max len of scratch index in speh4           32
 max int batch size is                      520
 min int batch size is                       52
 fixed nKL is                                52
 max L of basis functions is                  3
 order of int derivative is                   0
 number of shells is                        356
 number of basis is                        1177
 number of cartesian basis is              1177
 number of contracted shell pairs         30940
 number of primitive shell pairs          93766
 maxK2 (contraction) of shell pair          121
 max number of K2 of shell pair               1
 max number of CS2 of shell pair           4268
 max number of PS2 of shell pair          13020
 mem total for path MDJ                  838096
 -------------------------------------------------------
 Smallest overlap matrix eigenvalue = 2.42E-05

 Scale SEOQF with 1.000000e-02/1.000000e-01/1.000000e+00

 Standard Electronic Orientation quadrupole field applied
 Nucleus-field energy     =     0.0000000565 hartrees
 Guess from superposition of atomic densities
 Warning:  Energy on first SCF cycle will be non-variational
 Long-range K will be added via erf
 Coulomb attenuation parameter = 0.2 bohr**(-1)
 A restricted hybrid HF-DFT SCF calculation will be
 performed using Pulay DIIS extrapolation
 Exchange:     0.2220 Hartree-Fock + 1.0000 wB97X-D + LR-HF
 Correlation:  1.0000 wB97X-D
 Using SG-2 standard quadrature grid
 Dispersion:   Grimme D
 SCF converges when DIIS error is below 1.0E-08
 using 16 threads for integral computing 
 using 16 threads for integral computing 
 K construction time:  CPU 71.29 s  wall 4.71 s
 -------------------------------------------------------
 OpenMP BLAS3 based DFT computing Module                
 Release: version 1.0, May 2013, Q-Chem Inc. Pittsburgh 
 -------------------------------------------------------
 ---------------------------------------
  Cycle       Energy         DIIS Error
 ---------------------------------------
    1   -2301.4762776554      1.84E-02
 K construction time:  CPU 1133.55 s  wall 74.83 s
    2   -2290.9015186276      1.33E-03
 K construction time:  CPU 1074.13 s  wall 71.10 s
    3   -2290.9332184253      1.34E-03
 K construction time:  CPU 1027.93 s  wall 67.92 s
    4   -2291.1431513267      2.15E-04
 K construction time:  CPU 958.77 s  wall 63.33 s
    5   -2291.1476667222      1.40E-04
 K construction time:  CPU 903.77 s  wall 59.75 s
    6   -2291.1498958948      4.94E-05
 K construction time:  CPU 850.47 s  wall 56.23 s
    7   -2291.1502093208      1.80E-05
 K construction time:  CPU 798.01 s  wall 52.84 s
    8   -2291.1502643753      5.63E-06
 K construction time:  CPU 768.12 s  wall 50.75 s
    9   -2291.1502767923      3.76E-06
 K construction time:  CPU 727.20 s  wall 48.14 s
   10   -2291.1502808821      1.30E-06
 K construction time:  CPU 661.27 s  wall 43.59 s
   11   -2291.1502814474      7.54E-07
 K construction time:  CPU 621.07 s  wall 40.99 s
   12   -2291.1502816146      2.11E-07
 K construction time:  CPU 546.74 s  wall 36.05 s
   13   -2291.1502816300      1.22E-07
 K construction time:  CPU 487.16 s  wall 32.06 s
   14   -2291.1502816321      3.36E-08
 K construction time:  CPU 416.69 s  wall 27.33 s
   15   -2291.1502816313      1.75E-08
 K construction time:  CPU 1122.42 s  wall 74.26 s
   16   -2291.1502816337      5.76E-09 Convergence criterion met
 ---------------------------------------
 SCF time:  CPU 16172.24 s  wall 1096.08 s
 SCF   energy in the final basis set = -2291.1502816337
 Total energy in the final basis set = -2291.1502816337
 
 --------------------------------------------------------------
 
                    Orbital Energies (a.u.)
 --------------------------------------------------------------
 
 Alpha MOs
 -- Occupied --
-89.146 -89.099 -89.079 -14.482 -14.479 -14.463 -14.463 -14.444
-14.434 -10.355 -10.352 -10.350 -10.346 -10.344 -10.344 -10.343
-10.342 -10.338 -10.336 -10.335 -10.330 -10.326 -10.323 -10.320
-10.309 -10.300 -10.297 -10.295 -10.292  -8.156  -8.114  -8.095
 -6.106  -6.100  -6.100  -6.063  -6.059  -6.058  -6.044  -6.040
 -6.038  -1.143  -1.102  -1.068  -1.048  -1.030  -1.013  -1.003
 -0.986  -0.925  -0.911  -0.895  -0.879  -0.870  -0.853  -0.838
 -0.812  -0.777  -0.772  -0.748  -0.738  -0.731  -0.716  -0.711
 -0.672  -0.655  -0.649  -0.629  -0.628  -0.620  -0.607  -0.603
 -0.587  -0.576  -0.567  -0.560  -0.557  -0.549  -0.543  -0.526
 -0.512  -0.508  -0.501  -0.498  -0.493  -0.492  -0.486  -0.483
 -0.474  -0.465  -0.464  -0.461  -0.451  -0.443  -0.429  -0.426
 -0.418  -0.411  -0.392  -0.377  -0.372  -0.359  -0.358  -0.351
 -0.344  -0.338  -0.334  -0.334  -0.321  -0.262
 -- Virtual --
 -0.055  -0.025   0.024   0.032   0.042   0.051   0.069   0.073
  0.085   0.090   0.118   0.124   0.125   0.130   0.132   0.136
  0.147   0.153   0.155   0.164   0.170   0.176   0.183   0.193
  0.200   0.208   0.210   0.216   0.225   0.229   0.244   0.248
  0.258   0.267   0.268   0.277   0.283   0.288   0.294   0.296
  0.303   0.305   0.307   0.314   0.318   0.324   0.324   0.332
  0.334   0.340   0.343   0.346   0.349   0.351   0.355   0.360
  0.366   0.370   0.371   0.378   0.382   0.384   0.385   0.389
  0.391   0.392   0.398   0.400   0.404   0.411   0.411   0.413
  0.415   0.417   0.422   0.426   0.432   0.434   0.436   0.443
  0.444   0.448   0.449   0.455   0.459   0.460   0.464   0.465
  0.469   0.474   0.476   0.478   0.483   0.485   0.490   0.491
  0.494   0.503   0.504   0.506   0.513   0.515   0.520   0.522
  0.527   0.530   0.533   0.537   0.538   0.542   0.549   0.555
  0.560   0.560   0.570   0.576   0.581   0.588   0.595   0.599
  0.604   0.609   0.611   0.615   0.622   0.629   0.636   0.641
  0.643   0.650   0.653   0.660   0.662   0.668   0.670   0.674
  0.676   0.691   0.694   0.699   0.707   0.713   0.717   0.720
  0.726   0.730   0.733   0.735   0.742   0.745   0.748   0.754
  0.765   0.767   0.768   0.771   0.776   0.782   0.784   0.790
  0.797   0.798   0.803   0.808   0.813   0.817   0.822   0.826
  0.833   0.835   0.840   0.843   0.848   0.852   0.854   0.859
  0.862   0.868   0.872   0.873   0.878   0.885   0.894   0.907
  0.908   0.911   0.918   0.924   0.927   0.930   0.932   0.941
  0.947   0.950   0.953   0.958   0.961   0.963   0.970   0.975
  0.981   0.986   0.988   1.000   1.000   1.008   1.011   1.021
  1.026   1.031   1.036   1.042   1.048   1.051   1.055   1.059
  1.062   1.068   1.078   1.086   1.087   1.095   1.099   1.102
  1.104   1.108   1.112   1.115   1.118   1.130   1.137   1.141
  1.146   1.155   1.162   1.171   1.181   1.183   1.189   1.194
  1.197   1.207   1.217   1.217   1.233   1.235   1.240   1.243
  1.253   1.262   1.268   1.272   1.280   1.295   1.299   1.303
  1.305   1.311   1.327   1.332   1.340   1.342   1.353   1.355
  1.359   1.368   1.373   1.377   1.379   1.382   1.389   1.392
  1.400   1.408   1.412   1.422   1.425   1.427   1.438   1.439
  1.445   1.452   1.457   1.460   1.467   1.477   1.481   1.483
  1.489   1.496   1.505   1.507   1.512   1.514   1.521   1.534
  1.549   1.559   1.565   1.570   1.580   1.581   1.587   1.602
  1.609   1.610   1.618   1.628   1.630   1.639   1.644   1.647
  1.654   1.658   1.668   1.672   1.679   1.687   1.693   1.701
  1.708   1.709   1.724   1.727   1.732   1.739   1.743   1.749
  1.762   1.769   1.781   1.788   1.791   1.800   1.804   1.808
  1.814   1.836   1.842   1.853   1.862   1.871   1.887   1.887
  1.896   1.908   1.914   1.919   1.931   1.937   1.943   1.949
  1.955   1.973   1.977   1.983   1.987   1.989   1.999   2.007
  2.014   2.018   2.037   2.041   2.043   2.055   2.059   2.070
  2.073   2.090   2.102   2.105   2.110   2.112   2.127   2.129
  2.139   2.157   2.166   2.176   2.178   2.182   2.184   2.194
  2.199   2.206   2.216   2.218   2.233   2.243   2.250   2.255
  2.261   2.279   2.290   2.294   2.295   2.304   2.313   2.318
  2.323   2.327   2.340   2.348   2.351   2.368   2.370   2.375
  2.385   2.390   2.397   2.402   2.414   2.421   2.424   2.431
  2.438   2.439   2.454   2.457   2.463   2.468   2.474   2.483
  2.486   2.495   2.512   2.519   2.524   2.528   2.531   2.532
  2.539   2.543   2.550   2.554   2.557   2.562   2.589   2.606
  2.612   2.616   2.623   2.630   2.637   2.643   2.653   2.658
  2.664   2.666   2.677   2.679   2.687   2.697   2.712   2.718
  2.728   2.733   2.739   2.759   2.765   2.773   2.776   2.778
  2.783   2.789   2.795   2.807   2.809   2.816   2.820   2.833
  2.837   2.846   2.850   2.855   2.865   2.871   2.878   2.879
  2.881   2.888   2.893   2.908   2.915   2.921   2.930   2.930
  2.943   2.945   2.950   2.952   2.958   2.969   2.970   2.980
  2.987   2.993   2.997   3.002   3.006   3.009   3.013   3.018
  3.023   3.029   3.036   3.041   3.049   3.054   3.059   3.062
  3.068   3.069   3.071   3.077   3.079   3.080   3.086   3.088
  3.091   3.097   3.103   3.105   3.117   3.119   3.123   3.126
  3.136   3.148   3.148   3.157   3.159   3.164   3.165   3.170
  3.173   3.176   3.181   3.191   3.196   3.198   3.203   3.208
  3.215   3.216   3.219   3.222   3.226   3.232   3.236   3.241
  3.244   3.249   3.254   3.260   3.262   3.263   3.268   3.273
  3.278   3.284   3.291   3.295   3.298   3.299   3.303   3.308
  3.310   3.315   3.318   3.323   3.330   3.337   3.338   3.344
  3.349   3.350   3.354   3.370   3.379   3.386   3.386   3.392
  3.400   3.401   3.404   3.415   3.419   3.419   3.428   3.433
  3.436   3.445   3.453   3.459   3.464   3.466   3.472   3.474
  3.480   3.488   3.490   3.497   3.508   3.510   3.514   3.520
  3.526   3.532   3.534   3.552   3.563   3.567   3.572   3.579
  3.585   3.596   3.613   3.618   3.622   3.633   3.641   3.649
  3.655   3.668   3.674   3.680   3.690   3.694   3.702   3.710
  3.714   3.723   3.731   3.736   3.744   3.749   3.751   3.757
  3.769   3.777   3.780   3.789   3.792   3.802   3.808   3.817
  3.819   3.830   3.832   3.843   3.852   3.856   3.874   3.880
  3.891   3.895   3.906   3.916   3.917   3.922   3.927   3.931
  3.934   3.936   3.941   3.952   3.958   3.960   3.969   3.982
  3.984   3.992   3.999   4.005   4.018   4.025   4.030   4.040
  4.051   4.059   4.071   4.078   4.079   4.086   4.095   4.103
  4.114   4.117   4.123   4.147   4.153   4.162   4.170   4.174
  4.186   4.198   4.199   4.204   4.209   4.216   4.219   4.223
  4.232   4.234   4.245   4.250   4.258   4.264   4.272   4.283
  4.286   4.289   4.303   4.315   4.323   4.325   4.328   4.336
  4.345   4.354   4.357   4.363   4.368   4.380   4.391   4.400
  4.411   4.412   4.431   4.432   4.438   4.439   4.446   4.454
  4.462   4.480   4.494   4.497   4.514   4.523   4.527   4.533
  4.547   4.554   4.563   4.574   4.590   4.593   4.604   4.612
  4.628   4.639   4.644   4.650   4.662   4.674   4.686   4.694
  4.711   4.727   4.738   4.747   4.756   4.776   4.785   4.790
  4.798   4.807   4.813   4.815   4.830   4.845   4.853   4.867
  4.878   4.879   4.887   4.890   4.905   4.918   4.924   4.934
  4.939   4.951   4.958   4.970   4.974   4.980   4.987   4.992
  4.998   5.004   5.010   5.022   5.032   5.046   5.048   5.057
  5.073   5.083   5.098   5.100   5.108   5.115   5.119   5.128
  5.140   5.147   5.150   5.161   5.172   5.177   5.184   5.191
  5.213   5.226   5.243   5.250   5.268   5.303   5.310   5.315
  5.321   5.344   5.352   5.376   5.384   5.404   5.425   5.429
  5.453   5.467   5.477   5.491   5.497   5.501   5.528   5.542
  5.564   5.576   5.581   5.590   5.599   5.611   5.629   5.647
  5.674   5.701   5.721   5.723   5.744   5.752   5.755   5.792
  5.801   5.837   5.840   5.860   5.883   5.901   5.914   5.929
  5.953   5.983   6.019   6.046   6.088   6.134   6.172   6.183
  6.206   6.245   6.256   6.305   6.347   6.355   6.385   6.438
  6.446   6.492   6.644   6.875   6.988   7.079   8.067   8.880
  9.819  10.233  10.672  11.135  11.258  11.702  12.023  12.151
 12.428  12.638  12.759  12.830  12.857  12.969  13.104  13.192
 13.331  13.431  13.579  14.180  14.439  14.666  15.069  15.115
 --------------------------------------------------------------
 
          Ground-State Mulliken Net Atomic Charges

     Atom                 Charge (a.u.)
  ----------------------------------------
      1 C                    -0.092930
      2 C                    -0.129469
      3 C                    -0.080206
      4 C                    -0.117730
      5 N                    -0.145321
      6 C                     0.082098
      7 C                     0.098786
      8 N                    -0.177172
      9 C                    -0.017997
     10 C                    -0.085462
     11 N                    -0.217848
     12 C                     0.050797
     13 C                     0.063204
     14 S                     0.405098
     15 N                    -0.305478
     16 C                    -0.072115
     17 S                     0.173277
     18 C                     0.059983
     19 C                    -0.057121
     20 N                    -0.168976
     21 C                     0.069721
     22 C                    -0.009179
     23 C                    -0.045890
     24 N                    -0.162920
     25 C                    -0.141828
     26 S                     0.097561
     27 C                    -0.045993
     28 C                    -0.159931
     29 C                    -0.180501
     30 H                     0.132918
     31 H                     0.119862
     32 H                     0.119941
     33 H                     0.138028
     34 H                     0.137927
     35 H                     0.128499
     36 H                     0.141513
     37 H                     0.127094
     38 H                     0.130726
     39 H                     0.137036
  ----------------------------------------
  Sum of atomic charges =     0.000000

 -----------------------------------------------------------------
                    Cartesian Multipole Moments
 -----------------------------------------------------------------
    Charge (ESU x 10^10)
                 0.0000
    Dipole Moment (Debye)
         X      -0.3845      Y       1.5978      Z       0.4865
       Tot       1.7139
    Quadrupole Moments (Debye-Ang)
        XX    -151.5870     XY       2.7534     YY    -164.3217
        XZ       3.4780     YZ       1.0238     ZZ    -187.4078
    Octopole Moments (Debye-Ang^2)
       XXX     101.3054    XXY      18.4489    XYY     -42.9662
       YYY      35.5395    XXZ      -4.1951    XYZ       9.3675
       YYZ      12.5122    XZZ       6.2165    YZZ      -6.0247
       ZZZ       4.0170
    Hexadecapole Moments (Debye-Ang^3)
      XXXX  -15914.1134   XXXY     528.9661   XXYY   -3525.2845
      XYYY    -152.9851   YYYY   -3462.6719   XXXZ      97.8595
      XXYZ      48.5350   XYYZ      -0.2148   YYYZ      22.4693
      XXZZ   -3474.3060   XYZZ     -33.9769   YYZZ    -727.6900
      XZZZ      -6.3277   YZZZ      -7.1879   ZZZZ    -271.4923
 -----------------------------------------------------------------
 Calculating analytic gradient of the SCF energy
 K construction time:  CPU 3000.97 s  wall 190.05 s
 Gradient of SCF Energy
            1           2           3           4           5           6
    1   0.0000878  -0.0012232   0.0005269   0.0013377   0.0001711  -0.0010188
    2  -0.0000234  -0.0005726  -0.0001991  -0.0000246  -0.0003119   0.0001209
    3  -0.0000418  -0.0002378  -0.0000486  -0.0001014   0.0001152  -0.0000690
            7           8           9          10          11          12
    1   0.0009414  -0.0004965  -0.0007103  -0.0000243  -0.0000414   0.0000249
    2   0.0004514   0.0004367  -0.0001177  -0.0004299  -0.0000064  -0.0002052
    3   0.0002512  -0.0002485  -0.0003726  -0.0004366   0.0000762   0.0003548
           13          14          15          16          17          18
    1  -0.0005499   0.0000818   0.0005367   0.0005519  -0.0001617   0.0003021
    2   0.0000352  -0.0002623   0.0005878  -0.0010795  -0.0001447   0.0009304
    3  -0.0002195   0.0002446  -0.0003978  -0.0020445   0.0013565   0.0009530
           19          20          21          22          23          24
    1  -0.0006867   0.0003876   0.0004489  -0.0006864  -0.0002874  -0.0010736
    2  -0.0000399  -0.0000578   0.0003427   0.0017189  -0.0010996  -0.0008424
    3  -0.0013922   0.0000391   0.0021307   0.0010312   0.0001382  -0.0003478
           25          26          27          28          29          30
    1   0.0007506   0.0002697   0.0005154  -0.0007019   0.0009090   0.0000016
    2   0.0003792  -0.0003206   0.0006574  -0.0005881  -0.0007382   0.0002087
    3   0.0006081  -0.0016457  -0.0000026  -0.0006650   0.0014167   0.0002832
           31          32          33          34          35          36
    1   0.0002216  -0.0002682   0.0000721   0.0001488   0.0003111   0.0004949
    2   0.0005504   0.0001552   0.0000987  -0.0001646   0.0000972  -0.0004438
    3   0.0000285   0.0001580  -0.0000077   0.0004803  -0.0002877  -0.0010809
           37          38          39
    1  -0.0006618   0.0000650  -0.0005665
    2  -0.0001687   0.0006741   0.0003960
    3  -0.0001240   0.0001271  -0.0000207
 Max gradient component =       2.131E-03
 RMS gradient           =       6.365E-04
 Gradient time:  CPU 3463.19 s  wall 221.48 s
 Geometry Optimization Parameters
   NAtoms,    NIC,     NZ,  NCons,   NDum,   NFix, NCnnct, MaxDiis
       39     293       0       3       0       0       0       0


** CONSTRAINED OPTIMIZATION IN DELOCALIZED INTERNAL COORDINATES **
   Searching for a Minimum

   Optimization Cycle:   1

                       Coordinates (Angstroms)
     ATOM                X               Y               Z
      1  C         7.6794152865    0.3449089758   -0.1508144788
      2  C         6.9946540143    1.5035561463    0.1774817344
      3  C         6.9409336857   -0.7867005796   -0.4575313453
      4  C         5.6154015390    1.4817518195    0.1940600592
      5  N         5.6146767648   -0.8234956030   -0.4421810795
      6  C         4.9618975395    0.2902165498   -0.1168111703
      7  C         3.4786094626    0.2484620554   -0.1002358395
      8  N         2.8472219175    1.3827471013   -0.2292129287
      9  C         2.7164733046   -0.9547368631    0.0668647744
     10  C         1.4941855874    1.4564942509   -0.2216544808
     11  N         3.1659908219   -2.1947355716    0.2709367782
     12  C         1.2865338963   -0.8714146875    0.0641518288
     13  C         0.6354917814    0.3909768456   -0.0836923540
     14  S         1.8743868003   -3.1330216765    0.4140309841
     15  N         0.6933380004   -2.0502001846    0.2411199294
     16  C        -0.8106391421    0.5479419714   -0.0568735317
     17  S        -1.8923522811   -0.7847853979   -0.1596394790
     18  C        -1.5593833945    1.7189943519    0.0631566826
     19  C        -3.3130189295    0.1555327857   -0.0806255682
     20  N        -1.0579383801    2.9802747230    0.1817664160
     21  C        -2.9726282052    1.4962735130    0.0533972004
     22  C        -4.6333200377   -0.4307066264   -0.1305848427
     23  C        -1.9337055726    3.9324553399    0.2756618706
     24  N        -3.8623683509    2.5202371630    0.1537237997
     25  C        -5.8248109319    0.2015549067   -0.3579950933
     26  S        -4.8838407071   -2.1318157946    0.0982793730
     27  C        -3.3439128272    3.7049883058    0.2606945304
     28  C        -6.9328410890   -0.6787807517   -0.3344538804
     29  C        -6.5775639195   -1.9684827097   -0.0928969885
     30  H         8.7596359381    0.3166473732   -0.1693408567
     31  H         7.5304652182    2.4122333505    0.4200844152
     32  H         7.4364504386   -1.7106414173   -0.7309365843
     33  H         5.0331154116    2.3572119285    0.4371853923
     34  H         1.0913160299    2.4517220494   -0.3162783779
     35  H        -1.5572979707    4.9459451936    0.3657381038
     36  H        -5.8852506605    1.2608459881   -0.5425619023
     37  H        -4.0256934088    4.5444681020    0.3428594435
     38  H        -7.9520438319   -0.3575565473   -0.4864008051
     39  H        -7.2188758595   -2.8304171124   -0.0239479249
   Point Group: c1    Number of degrees of freedom:   111


   Energy is  -2291.150281634

              Constraints and their Current Values
                                        Value     Constraint
   Dihedral:        4   6   7   8       21.915       21.822
   Dihedral:       10  13  16  17      169.085      169.064
   Dihedral:       17  19  22  25     -165.000     -165.000

 Attempting to Generate Delocalized Internal Coordinates

   Using Lagrange Multiplier Algorithm


114 Hessian modes will be used to form the next step
  Hessian Eigenvalues:
    -0.977753   -0.977753   -0.977753    0.045000    0.045000    0.045000
     0.045000    0.045000    0.045000    0.045000    0.045000    0.045000
     0.045000    0.045000    0.045000    0.045000    0.045001    0.045001
     0.045001    0.045001    0.045001    0.045001    0.045001    0.045002
     0.045002    0.045002    0.045002    0.045003    0.045003    0.045004
     0.045004    0.045007    0.045008    0.045011    0.045025    0.045042
     0.159985    0.159992    0.159996    0.159998    0.159999    0.159999
     0.160000    0.160000    0.160000    0.160000    0.219998    0.221296
     0.223765    0.224234    0.233056    0.237962    0.243336    0.244277
     0.249685    0.249909    0.249932    0.249960    0.249971    0.249981
     0.249981    0.249983    0.249989    0.249990    0.249993    0.249993
     0.249995    0.312596    0.327535    0.334454    0.341192    0.341256
     0.354114    0.354472    0.355757    0.357029    0.359040    0.360701
     0.360954    0.362567    0.363657    0.364141    0.369052    0.372793
     0.376138    0.388453    0.390986    0.406991    0.407223    0.418669
     0.432515    0.440848    0.460521    0.465839    0.471161    0.473690
     0.482794    0.484038    0.485870    0.485956    0.504407    0.517477
     0.519000    0.525383    0.557629    0.572590    0.582389    0.589743
     0.639523    0.655133    0.663889    1.022753    1.022753    1.022753

 Minimum Search - Taking P-RFO Step
 Searching for Lamda that Maximizes Along the Constraint modes Only
 Value Taken    Lamda =   0.00000385
 Searching for Lamda that Minimizes Along All other modes
 Value Taken    Lamda =  -0.00047952
 Step Taken.  Stepsize is  0.081602

                             Maximum     Tolerance    Cnvgd?
         Gradient            0.005709       0.000300      NO
         Displacement        0.033688       0.001200      NO
         Energy change     *********       0.000001      NO


 New Cartesian Coordinates Obtained by Inverse Iteration

 Displacement from previous Coordinates is:  0.631645
 ----------------------------------------------------------------
             Standard Nuclear Orientation (Angstroms)
    I     Atom           X                Y                Z
 ----------------------------------------------------------------
    1      C       7.6763672625     0.2972863531    -0.1803016676
    2      C       7.0138036439     1.4611772961     0.1748754948
    3      C       6.9174298333    -0.8200368244    -0.4886485489
    4      C       5.6335910472     1.4586731433     0.2120732341
    5      N       5.5916330280    -0.8389077329    -0.4513480940
    6      C       4.9603488127     0.2793659578    -0.1018748248
    7      C       3.4766359296     0.2581704290    -0.0748263645
    8      N       2.8602490569     1.4022328868    -0.1896522698
    9      C       2.7010879291    -0.9361439788     0.0859465831
   10      C       1.5078626322     1.4947379678    -0.1837178886
   11      N       3.1346261454    -2.1837192629     0.2772981675
   12      C       1.2726064842    -0.8339280093     0.0845136215
   13      C       0.6372589170     0.4370142174    -0.0581629558
   14      S       1.8304394822    -3.1056543612     0.4127893606
   15      N       0.6631258928    -2.0064214775     0.2518031402
   16      C      -0.8090288673     0.5969574350    -0.0445414732
   17      S      -1.8769441921    -0.7441196990    -0.1637781040
   18      C      -1.5688921766     1.7615906510     0.0606364597
   19      C      -3.3072276097     0.1794849095    -0.0838838134
   20      N      -1.0786818199     3.0277223764     0.1808316691
   21      C      -2.9806318418     1.5258776663     0.0393171246
   22      C      -4.6168042846    -0.4334314655    -0.1320170602
   23      C      -1.9609967727     3.9745008745     0.2676626973
   24      N      -3.8765223629     2.5453278520     0.1344766409
   25      C      -5.8250307189     0.1693144912    -0.3588899184
   26      S      -4.8274492956    -2.1378541865     0.1094504268
   27      C      -3.3683519750     3.7342109394     0.2439536129
   28      C      -6.9092912004    -0.7401014749    -0.3427034404
   29      C      -6.5216502862    -2.0206849674    -0.1059457113
   30      H       8.7554929623     0.2530471430    -0.2200141529
   31      H       7.5663611478     2.3581607855     0.4195927546
   32      H       7.3965473955    -1.7464560274    -0.7837814598
   33      H       5.0663306728     2.3388059187     0.4729350883
   34      H       1.1168602119     2.4950244131    -0.2789165819
   35      H      -1.5948464567     4.9909434849     0.3634372622
   36      H      -5.9157855331     1.2283516359    -0.5346404436
   37      H      -4.0542142781     4.5700414136     0.3238932112
   38      H      -7.9368624626    -0.4497208620    -0.4990235291
   39      H      -7.1367384144    -2.9018906444    -0.0422944432
 ----------------------------------------------------------------
 Molecular Point Group                 C1    NOp =  1
 Largest Abelian Subgroup              C1    NOp =  1
 Nuclear Repulsion Energy =  2932.8811975718 hartrees
 There are      110 alpha and      110 beta electrons
 Applying Cartesian multipole field
    Component          Value
    ---------          -----
     (2,0,0)        1.00000E-12
     (0,2,0)        2.00000E-11
     (0,0,2)       -3.00000E-10
 Nucleus-field energy     =     0.0000000566 hartrees
 Requested basis set is cc-pVTZ
 There are 356 shells and 1022 basis functions
 A cutoff of  1.0D-11 yielded  30929 shell pairs
 There are    243929 function pairs (    318354 Cartesian)
 Smallest overlap matrix eigenvalue = 2.37E-05
 Guess MOs from SCF MO coefficient file
 Reading MOs from coefficient file
 Reading MOs from coefficient file
 Long-range K will be added via erf
 Coulomb attenuation parameter = 0.2 bohr**(-1)
 A restricted hybrid HF-DFT SCF calculation will be
 performed using Pulay DIIS extrapolation
 Exchange:     0.2220 Hartree-Fock + 1.0000 wB97X-D + LR-HF
 Correlation:  1.0000 wB97X-D
 Using SG-2 standard quadrature grid
 Dispersion:   Grimme D
 SCF converges when DIIS error is below 1.0E-08
 Geometry optimization detected.  Setting ReadMinima to 0
 Setting SaveMinima to 0
 using 16 threads for integral computing 
 using 16 threads for integral computing 
 K construction time:  CPU 1123.98 s  wall 74.36 s
 -------------------------------------------------------
 OpenMP BLAS3 based DFT computing Module                
 Release: version 1.0, May 2013, Q-Chem Inc. Pittsburgh 
 -------------------------------------------------------
 ---------------------------------------
  Cycle       Energy         DIIS Error
 ---------------------------------------
    1   -2291.1503222142      2.83E-04
 K construction time:  CPU 1128.06 s  wall 74.55 s
    2   -2291.1502735321      3.25E-05
 K construction time:  CPU 847.96 s  wall 56.07 s
    3   -2291.1503405663      3.75E-05
 K construction time:  CPU 802.65 s  wall 53.09 s
    4   -2291.1504987302      1.00E-05
 K construction time:  CPU 744.50 s  wall 49.24 s
    5   -2291.1505117546      4.65E-06
 K construction time:  CPU 686.23 s  wall 45.33 s
    6   -2291.1505146350      1.21E-06
 K construction time:  CPU 618.34 s  wall 40.90 s
    7   -2291.1505148857      4.93E-07
 K construction time:  CPU 563.86 s  wall 37.16 s
    8   -2291.1505149281      2.31E-07
 K construction time:  CPU 519.28 s  wall 34.18 s
    9   -2291.1505149382      9.26E-08
 K construction time:  CPU 449.40 s  wall 29.59 s
   10   -2291.1505149393      3.39E-08
 K construction time:  CPU 399.20 s  wall 26.28 s
   11   -2291.1505149398      1.48E-08
 K construction time:  CPU 357.15 s  wall 23.54 s
   12   -2291.1505149370      6.07E-09 Convergence criterion met
 ---------------------------------------
 SCF time:  CPU 11090.75 s  wall 752.06 s
 SCF   energy in the final basis set = -2291.1505149370
 Total energy in the final basis set = -2291.1505149370
 
 --------------------------------------------------------------
 
                    Orbital Energies (a.u.)
 --------------------------------------------------------------
 
 Alpha MOs
 -- Occupied --
-89.146 -89.099 -89.079 -14.482 -14.479 -14.463 -14.462 -14.445
-14.434 -10.355 -10.352 -10.350 -10.345 -10.344 -10.344 -10.342
-10.341 -10.338 -10.336 -10.335 -10.330 -10.326 -10.323 -10.320
-10.309 -10.301 -10.298 -10.295 -10.293  -8.156  -8.113  -8.095
 -6.106  -6.101  -6.100  -6.062  -6.058  -6.057  -6.044  -6.040
 -6.037  -1.143  -1.101  -1.068  -1.048  -1.029  -1.014  -1.003
 -0.986  -0.925  -0.911  -0.896  -0.879  -0.870  -0.853  -0.838
 -0.812  -0.777  -0.772  -0.749  -0.738  -0.731  -0.716  -0.710
 -0.672  -0.655  -0.648  -0.629  -0.628  -0.621  -0.607  -0.603
 -0.587  -0.576  -0.568  -0.560  -0.557  -0.548  -0.543  -0.526
 -0.512  -0.508  -0.501  -0.499  -0.493  -0.492  -0.486  -0.483
 -0.473  -0.465  -0.464  -0.461  -0.451  -0.443  -0.429  -0.426
 -0.418  -0.411  -0.392  -0.377  -0.372  -0.360  -0.358  -0.351
 -0.344  -0.338  -0.334  -0.334  -0.321  -0.262
 -- Virtual --
 -0.055  -0.024   0.024   0.032   0.042   0.051   0.070   0.073
  0.085   0.090   0.118   0.124   0.125   0.129   0.133   0.137
  0.148   0.153   0.156   0.165   0.170   0.176   0.183   0.192
  0.200   0.208   0.209   0.216   0.224   0.229   0.244   0.248
  0.258   0.267   0.268   0.277   0.283   0.288   0.293   0.295
  0.302   0.305   0.306   0.315   0.318   0.324   0.324   0.332
  0.334   0.340   0.343   0.346   0.349   0.351   0.355   0.360
  0.365   0.370   0.372   0.378   0.382   0.384   0.385   0.390
  0.391   0.392   0.398   0.400   0.404   0.410   0.411   0.413
  0.414   0.417   0.422   0.426   0.432   0.435   0.436   0.442
  0.444   0.447   0.450   0.456   0.458   0.460   0.464   0.464
  0.469   0.473   0.476   0.478   0.483   0.485   0.490   0.491
  0.494   0.503   0.504   0.506   0.513   0.515   0.521   0.522
  0.526   0.530   0.533   0.537   0.538   0.542   0.549   0.556
  0.560   0.561   0.572   0.576   0.581   0.588   0.596   0.599
  0.603   0.609   0.611   0.615   0.622   0.629   0.637   0.641
  0.643   0.650   0.653   0.659   0.664   0.669   0.672   0.674
  0.677   0.690   0.694   0.699   0.708   0.714   0.717   0.722
  0.726   0.730   0.733   0.734   0.742   0.745   0.748   0.754
  0.765   0.767   0.769   0.770   0.777   0.782   0.784   0.791
  0.798   0.799   0.802   0.809   0.813   0.816   0.823   0.825
  0.832   0.835   0.841   0.844   0.847   0.852   0.853   0.858
  0.862   0.869   0.872   0.873   0.879   0.886   0.894   0.905
  0.907   0.911   0.917   0.924   0.927   0.929   0.932   0.940
  0.947   0.949   0.953   0.957   0.961   0.963   0.969   0.975
  0.981   0.986   0.989   1.000   1.001   1.008   1.013   1.021
  1.026   1.031   1.037   1.043   1.047   1.051   1.055   1.060
  1.062   1.067   1.078   1.086   1.087   1.095   1.099   1.102
  1.104   1.107   1.112   1.115   1.118   1.131   1.136   1.140
  1.146   1.155   1.161   1.171   1.180   1.183   1.189   1.194
  1.197   1.208   1.214   1.217   1.234   1.235   1.240   1.245
  1.253   1.263   1.269   1.273   1.279   1.294   1.299   1.303
  1.306   1.311   1.327   1.331   1.339   1.342   1.353   1.355
  1.360   1.368   1.373   1.377   1.379   1.382   1.389   1.392
  1.401   1.408   1.411   1.421   1.426   1.427   1.439   1.440
  1.445   1.452   1.457   1.461   1.464   1.476   1.480   1.483
  1.489   1.496   1.505   1.507   1.511   1.513   1.520   1.534
  1.549   1.560   1.564   1.570   1.580   1.581   1.587   1.599
  1.608   1.611   1.618   1.626   1.632   1.640   1.645   1.648
  1.656   1.659   1.668   1.673   1.682   1.687   1.694   1.700
  1.709   1.709   1.723   1.726   1.731   1.739   1.743   1.749
  1.761   1.769   1.781   1.789   1.792   1.800   1.805   1.808
  1.817   1.838   1.843   1.855   1.862   1.872   1.886   1.887
  1.896   1.908   1.915   1.919   1.931   1.937   1.943   1.949
  1.962   1.973   1.977   1.983   1.987   1.991   2.000   2.006
  2.013   2.018   2.038   2.042   2.044   2.055   2.061   2.068
  2.073   2.091   2.102   2.104   2.110   2.112   2.127   2.128
  2.139   2.156   2.165   2.176   2.178   2.181   2.184   2.193
  2.200   2.206   2.217   2.219   2.232   2.244   2.251   2.256
  2.261   2.279   2.290   2.293   2.296   2.304   2.312   2.318
  2.322   2.326   2.340   2.348   2.350   2.367   2.369   2.373
  2.385   2.390   2.396   2.403   2.415   2.421   2.425   2.432
  2.438   2.438   2.454   2.457   2.463   2.468   2.475   2.483
  2.488   2.494   2.512   2.519   2.524   2.529   2.531   2.532
  2.540   2.543   2.551   2.554   2.556   2.562   2.589   2.604
  2.612   2.614   2.623   2.630   2.637   2.643   2.653   2.658
  2.662   2.666   2.676   2.679   2.688   2.697   2.712   2.716
  2.728   2.733   2.737   2.759   2.765   2.774   2.778   2.778
  2.783   2.789   2.797   2.807   2.808   2.816   2.821   2.833
  2.837   2.845   2.849   2.857   2.865   2.871   2.878   2.880
  2.881   2.889   2.892   2.908   2.916   2.922   2.929   2.930
  2.942   2.944   2.949   2.951   2.958   2.968   2.970   2.980
  2.986   2.993   2.995   3.003   3.005   3.010   3.014   3.018
  3.023   3.029   3.035   3.041   3.048   3.054   3.059   3.061
  3.068   3.069   3.070   3.077   3.080   3.081   3.085   3.088
  3.092   3.096   3.104   3.104   3.116   3.119   3.123   3.127
  3.136   3.146   3.148   3.157   3.159   3.163   3.165   3.169
  3.173   3.176   3.182   3.190   3.196   3.197   3.203   3.209
  3.214   3.216   3.219   3.223   3.227   3.232   3.236   3.241
  3.244   3.249   3.254   3.259   3.262   3.263   3.268   3.274
  3.278   3.283   3.289   3.295   3.298   3.299   3.303   3.308
  3.310   3.315   3.317   3.323   3.329   3.337   3.338   3.344
  3.349   3.350   3.354   3.370   3.379   3.386   3.387   3.391
  3.399   3.400   3.404   3.416   3.418   3.420   3.427   3.431
  3.435   3.444   3.453   3.458   3.463   3.466   3.472   3.475
  3.479   3.487   3.490   3.496   3.507   3.510   3.513   3.520
  3.526   3.531   3.535   3.553   3.564   3.568   3.572   3.580
  3.585   3.596   3.614   3.618   3.622   3.632   3.641   3.649
  3.655   3.668   3.674   3.682   3.690   3.694   3.701   3.710
  3.714   3.721   3.731   3.736   3.744   3.749   3.751   3.757
  3.768   3.777   3.780   3.789   3.792   3.802   3.807   3.816
  3.817   3.830   3.831   3.843   3.851   3.856   3.872   3.880
  3.892   3.895   3.906   3.914   3.915   3.922   3.927   3.930
  3.934   3.936   3.940   3.952   3.955   3.960   3.967   3.982
  3.984   3.992   3.999   4.004   4.017   4.023   4.027   4.039
  4.050   4.059   4.071   4.076   4.078   4.085   4.093   4.102
  4.113   4.116   4.123   4.147   4.154   4.163   4.170   4.175
  4.186   4.198   4.199   4.204   4.207   4.216   4.218   4.221
  4.231   4.235   4.241   4.250   4.257   4.265   4.270   4.281
  4.286   4.288   4.302   4.314   4.324   4.326   4.328   4.335
  4.343   4.353   4.355   4.363   4.367   4.379   4.391   4.398
  4.410   4.411   4.431   4.432   4.438   4.439   4.446   4.454
  4.461   4.481   4.494   4.497   4.513   4.523   4.525   4.533
  4.547   4.553   4.561   4.571   4.588   4.592   4.603   4.612
  4.628   4.638   4.646   4.650   4.663   4.675   4.685   4.695
  4.711   4.727   4.738   4.747   4.755   4.777   4.784   4.790
  4.799   4.807   4.813   4.814   4.830   4.845   4.855   4.867
  4.877   4.881   4.885   4.889   4.904   4.918   4.924   4.935
  4.937   4.950   4.957   4.970   4.973   4.979   4.987   4.992
  4.997   5.004   5.010   5.022   5.032   5.046   5.048   5.055
  5.073   5.082   5.098   5.101   5.108   5.113   5.118   5.128
  5.139   5.147   5.148   5.160   5.172   5.177   5.182   5.191
  5.212   5.225   5.243   5.250   5.267   5.304   5.311   5.317
  5.321   5.344   5.354   5.377   5.383   5.404   5.425   5.428
  5.452   5.466   5.478   5.491   5.497   5.500   5.528   5.542
  5.564   5.577   5.578   5.591   5.599   5.610   5.628   5.649
  5.674   5.699   5.719   5.721   5.744   5.753   5.754   5.791
  5.799   5.839   5.840   5.860   5.883   5.899   5.913   5.931
  5.953   5.983   6.019   6.046   6.085   6.132   6.170   6.185
  6.206   6.247   6.259   6.305   6.346   6.357   6.384   6.438
  6.446   6.490   6.648   6.876   6.990   7.080   8.069   8.880
  9.817  10.224  10.665  11.132  11.246  11.697  12.023  12.151
 12.430  12.636  12.754  12.831  12.863  12.969  13.100  13.180
 13.335  13.427  13.582  14.183  14.431  14.666  15.068  15.112
 --------------------------------------------------------------
 
          Ground-State Mulliken Net Atomic Charges

     Atom                 Charge (a.u.)
  ----------------------------------------
      1 C                    -0.092700
      2 C                    -0.129454
      3 C                    -0.080406
      4 C                    -0.118345
      5 N                    -0.145312
      6 C                     0.082316
      7 C                     0.099405
      8 N                    -0.176734
      9 C                    -0.018572
     10 C                    -0.085072
     11 N                    -0.217433
     12 C                     0.052358
     13 C                     0.062103
     14 S                     0.404666
     15 N                    -0.305348
     16 C                    -0.071265
     17 S                     0.173046
     18 C                     0.061240
     19 C                    -0.055629
     20 N                    -0.169760
     21 C                     0.068069
     22 C                    -0.009914
     23 C                    -0.045760
     24 N                    -0.162684
     25 C                    -0.142704
     26 S                     0.097918
     27 C                    -0.045619
     28 C                    -0.159476
     29 C                    -0.180290
     30 H                     0.132926
     31 H                     0.120159
     32 H                     0.119645
     33 H                     0.137882
     34 H                     0.136876
     35 H                     0.128528
     36 H                     0.141014
     37 H                     0.126961
     38 H                     0.130568
     39 H                     0.136797
  ----------------------------------------
  Sum of atomic charges =     0.000000

 -----------------------------------------------------------------
                    Cartesian Multipole Moments
 -----------------------------------------------------------------
    Charge (ESU x 10^10)
                 0.0000
    Dipole Moment (Debye)
         X      -0.3224      Y       1.4952      Z       0.4564
       Tot       1.5962
    Quadrupole Moments (Debye-Ang)
        XX    -151.4920     XY       2.7928     YY    -164.2685
        XZ       3.2271     YZ       1.0974     ZZ    -187.3498
    Octopole Moments (Debye-Ang^2)
       XXX     106.3544    XXY      14.3227    XYY     -45.2160
       YYY      30.3431    XXZ      -6.8984    XYZ       9.3201
       YYZ      11.8378    XZZ       6.5908    YZZ      -7.6542
       ZZZ       2.8595
    Hexadecapole Moments (Debye-Ang^3)
      XXXX  -15833.5500   XXXY     531.7321   XXYY   -3511.9267
      XYYY    -144.5588   YYYY   -3481.6524   XXXZ      81.7901
      XXYZ      55.0491   XYYZ      -2.7270   YYYZ      21.8637
      XXZZ   -3454.0051   XYZZ     -30.1762   YYZZ    -733.0154
      XZZZ      -9.3264   YZZZ      -8.4556   ZZZZ    -272.5660
 -----------------------------------------------------------------
 Calculating analytic gradient of the SCF energy
 K construction time:  CPU 2987.21 s  wall 189.28 s
 Gradient of SCF Energy
            1           2           3           4           5           6
    1   0.0001256  -0.0001661   0.0000836   0.0001628   0.0000086  -0.0003014
    2  -0.0002444   0.0000041   0.0001279   0.0002661   0.0000224  -0.0002839
    3  -0.0001780   0.0000737  -0.0000075  -0.0003755   0.0001430   0.0006385
            7           8           9          10          11          12
    1   0.0004203  -0.0000554   0.0000309   0.0002161   0.0001222  -0.0002987
    2  -0.0001609   0.0000539  -0.0000667   0.0003449   0.0001137  -0.0001432
    3  -0.0005329   0.0000866   0.0000575  -0.0002230  -0.0000861   0.0003665
           13          14          15          16          17          18
    1  -0.0000252  -0.0000103  -0.0007471  -0.0000517   0.0008500   0.0002644
    2  -0.0003429   0.0001058   0.0003976  -0.0004428   0.0002244   0.0000904
    3  -0.0001662   0.0000279  -0.0002423  -0.0008970   0.0001302   0.0006755
           19          20          21          22          23          24
    1  -0.0001467  -0.0007452   0.0002577  -0.0000074  -0.0001483   0.0000332
    2  -0.0008522   0.0004736  -0.0000221   0.0002307   0.0000910  -0.0000092
    3  -0.0002092   0.0001066   0.0008148   0.0001807  -0.0000173  -0.0002198
           25          26          27          28          29          30
    1  -0.0003107  -0.0001679   0.0002530  -0.0001877   0.0003906  -0.0000030
    2   0.0002677  -0.0000481   0.0005591  -0.0004800  -0.0001439   0.0000270
    3   0.0004477  -0.0001225   0.0000019  -0.0002278  -0.0000331   0.0001553
           31          32          33          34          35          36
    1  -0.0000246  -0.0000099  -0.0000453   0.0002503   0.0000293   0.0000942
    2   0.0000408  -0.0000254   0.0000190  -0.0002564   0.0000280  -0.0002823
    3  -0.0000918   0.0000845  -0.0000591   0.0000610  -0.0000557  -0.0005843
           37          38          39
    1   0.0000110   0.0000491  -0.0002004
    2  -0.0000598   0.0002232   0.0001530
    3  -0.0000161   0.0002974  -0.0000039
 Max gradient component =       8.970E-04
 RMS gradient           =       2.902E-04
 Gradient time:  CPU 3449.91 s  wall 220.73 s
 Geometry Optimization Parameters
   NAtoms,    NIC,     NZ,  NCons,   NDum,   NFix, NCnnct, MaxDiis
       39     293       0       3       0       0       0       0

 Cartesian Hessian Update
 Hessian Updated using BFGS Update


** CONSTRAINED OPTIMIZATION IN DELOCALIZED INTERNAL COORDINATES **
   Searching for a Minimum

   Optimization Cycle:   2

                       Coordinates (Angstroms)
     ATOM                X               Y               Z
      1  C         7.6763672625    0.2972863531   -0.1803016676
      2  C         7.0138036439    1.4611772961    0.1748754948
      3  C         6.9174298333   -0.8200368244   -0.4886485489
      4  C         5.6335910472    1.4586731433    0.2120732341
      5  N         5.5916330280   -0.8389077329   -0.4513480940
      6  C         4.9603488127    0.2793659578   -0.1018748248
      7  C         3.4766359296    0.2581704290   -0.0748263645
      8  N         2.8602490569    1.4022328868   -0.1896522698
      9  C         2.7010879291   -0.9361439788    0.0859465831
     10  C         1.5078626322    1.4947379678   -0.1837178886
     11  N         3.1346261454   -2.1837192629    0.2772981675
     12  C         1.2726064842   -0.8339280093    0.0845136215
     13  C         0.6372589170    0.4370142174   -0.0581629558
     14  S         1.8304394822   -3.1056543612    0.4127893606
     15  N         0.6631258928   -2.0064214775    0.2518031402
     16  C        -0.8090288673    0.5969574350   -0.0445414732
     17  S        -1.8769441921   -0.7441196990   -0.1637781040
     18  C        -1.5688921766    1.7615906510    0.0606364597
     19  C        -3.3072276097    0.1794849095   -0.0838838134
     20  N        -1.0786818199    3.0277223764    0.1808316691
     21  C        -2.9806318418    1.5258776663    0.0393171246
     22  C        -4.6168042846   -0.4334314655   -0.1320170602
     23  C        -1.9609967727    3.9745008745    0.2676626973
     24  N        -3.8765223629    2.5453278520    0.1344766409
     25  C        -5.8250307189    0.1693144912   -0.3588899184
     26  S        -4.8274492956   -2.1378541865    0.1094504268
     27  C        -3.3683519750    3.7342109394    0.2439536129
     28  C        -6.9092912004   -0.7401014749   -0.3427034404
     29  C        -6.5216502862   -2.0206849674   -0.1059457113
     30  H         8.7554929623    0.2530471430   -0.2200141529
     31  H         7.5663611478    2.3581607855    0.4195927546
     32  H         7.3965473955   -1.7464560274   -0.7837814598
     33  H         5.0663306728    2.3388059187    0.4729350883
     34  H         1.1168602119    2.4950244131   -0.2789165819
     35  H        -1.5948464567    4.9909434849    0.3634372622
     36  H        -5.9157855331    1.2283516359   -0.5346404436
     37  H        -4.0542142781    4.5700414136    0.3238932112
     38  H        -7.9368624626   -0.4497208620   -0.4990235291
     39  H        -7.1367384144   -2.9018906444   -0.0422944432
   Point Group: c1    Number of degrees of freedom:   111


   Energy is  -2291.150514937

              Constraints and their Current Values
                                        Value     Constraint
   Dihedral:        4   6   7   8       21.822       21.822
   Dihedral:       10  13  16  17      169.064      169.064
   Dihedral:       17  19  22  25     -165.000     -165.000
 Hessian Updated using BFGS Update

 97 Hessian modes will be used to form the next step
  Hessian Eigenvalues:
     0.027822    0.045000    0.045000    0.045000    0.045000    0.045000
     0.045001    0.045001    0.045001    0.045001    0.045001    0.045001
     0.045001    0.045002    0.045002    0.045003    0.045004    0.045004
     0.045005    0.045008    0.045011    0.045025    0.045041    0.046896
     0.156658    0.159989    0.159993    0.159997    0.159999    0.160000
     0.160000    0.160160    0.219955    0.221265    0.223112    0.224185
     0.233013    0.237945    0.239061    0.243604    0.244515    0.249686
     0.249929    0.249947    0.249970    0.249980    0.249982    0.249985
     0.249988    0.249992    0.249993    0.249994    0.312468    0.322946
     0.334121    0.339840    0.341121    0.354009    0.354232    0.355564
     0.356525    0.359039    0.360581    0.360943    0.361434    0.363516
     0.364132    0.365092    0.370412    0.375887    0.383694    0.389868
     0.400136    0.407197    0.418562    0.424037    0.432598    0.440908
     0.460417    0.471102    0.472872    0.475357    0.483659    0.485187
     0.485635    0.498131    0.505639    0.518972    0.522810    0.528169
     0.557917    0.572673    0.582142    0.589769    0.640049    0.655511
     0.664365

 Minimum Search - Taking Simple RFO Step
 Searching for Lamda that Minimizes Along All modes
 Value Taken    Lamda =  -0.00016245
 Step Taken.  Stepsize is  0.059093

                             Maximum     Tolerance    Cnvgd?
         Gradient           0.003800      0.000300      NO
         Displacement       0.033194      0.001200      NO
         Energy change     -0.000233      0.000001      NO


 New Cartesian Coordinates Obtained by Inverse Iteration

 Displacement from previous Coordinates is:  0.342447
 ----------------------------------------------------------------
             Standard Nuclear Orientation (Angstroms)
    I     Atom           X                Y                Z
 ----------------------------------------------------------------
    1      C       7.6706484474     0.3131765314    -0.2151108688
    2      C       7.0101983851     1.4699961960     0.1659224261
    3      C       6.9111139254    -0.8038167164    -0.5232735294
    4      C       5.6302868683     1.4616131991     0.2255661181
    5      N       5.5864905915    -0.8287064942    -0.4629843236
    6      C       4.9572001688     0.2828968073    -0.0899187578
    7      C       3.4735830437     0.2559987067    -0.0487770128
    8      N       2.8519386316     1.3982331408    -0.1495957059
    9      C       2.7052747223    -0.9428112315     0.1096186353
   10      C       1.4991390595     1.4836964026    -0.1419540223
   11      N       3.1469665735    -2.1890726915     0.2913519380
   12      C       1.2762025788    -0.8481513240     0.1137415215
   13      C       0.6339195745     0.4209991612    -0.0242791643
   14      S       1.8493189601    -3.1198345779     0.4267565536
   15      N       0.6754940949    -2.0262023458     0.2769276600
   16      C      -0.8127948859     0.5818752777    -0.0215040913
   17      S      -1.8881260326    -0.7529552387    -0.1505830098
   18      C      -1.5666945676     1.7506306916     0.0653299889
   19      C      -3.3128235592     0.1799307054    -0.0817288441
   20      N      -1.0661726383     3.0127895407     0.1818321550
   21      C      -2.9796052737     1.5250620693     0.0312927648
   22      C      -4.6239822530    -0.4291822675    -0.1335454916
   23      C      -1.9419727758     3.9666843485     0.2561088319
   24      N      -3.8682149751     2.5515418925     0.1150025173
   25      C      -5.8298625729     0.1754138202    -0.3691757973
   26      S      -4.8395176466    -2.1310315443     0.1185778375
   27      C      -3.3510804314     3.7364039781     0.2226196898
   28      C      -6.9151027974    -0.7326871147    -0.3599124936
   29      C      -6.5309694221    -2.0130960272    -0.1170605755
   30      H       8.7489427181     0.2734292560    -0.2766634337
   31      H       7.5636528703     2.3657740543     0.4117308414
   32      H       7.3891048019    -1.7239637297    -0.8396779368
   33      H       5.0638122184     2.3365232027     0.5048075763
   34      H       1.1017741632     2.4823388746    -0.2348848609
   35      H      -1.5698315780     4.9808682136     0.3512394529
   36      H      -5.9194210593     1.2354636054    -0.5419122240
   37      H      -4.0296425150     4.5788775101     0.2938697909
   38      H      -7.9415677528    -0.4444932435    -0.5270457817
   39      H      -7.1449717219    -2.8952633718    -0.0561845702
 ----------------------------------------------------------------
 Molecular Point Group                 C1    NOp =  1
 Largest Abelian Subgroup              C1    NOp =  1
 Nuclear Repulsion Energy =  2932.2428886628 hartrees
 There are      110 alpha and      110 beta electrons
 Applying Cartesian multipole field
    Component          Value
    ---------          -----
     (2,0,0)        1.00000E-12
     (0,2,0)        2.00000E-11
     (0,0,2)       -3.00000E-10
 Nucleus-field energy     =     0.0000000560 hartrees
 Requested basis set is cc-pVTZ
 There are 356 shells and 1022 basis functions
 A cutoff of  1.0D-11 yielded  30923 shell pairs
 There are    243867 function pairs (    318296 Cartesian)
 Smallest overlap matrix eigenvalue = 2.36E-05
 Guess MOs from SCF MO coefficient file
 Reading MOs from coefficient file
 Reading MOs from coefficient file
 Long-range K will be added via erf
 Coulomb attenuation parameter = 0.2 bohr**(-1)
 A restricted hybrid HF-DFT SCF calculation will be
 performed using Pulay DIIS extrapolation
 Exchange:     0.2220 Hartree-Fock + 1.0000 wB97X-D + LR-HF
 Correlation:  1.0000 wB97X-D
 Using SG-2 standard quadrature grid
 Dispersion:   Grimme D
 SCF converges when DIIS error is below 1.0E-08
 Geometry optimization detected.  Setting ReadMinima to 0
 Setting SaveMinima to 0
 using 16 threads for integral computing 
 using 16 threads for integral computing 
 K construction time:  CPU 1124.64 s  wall 74.63 s
 -------------------------------------------------------
 OpenMP BLAS3 based DFT computing Module                
 Release: version 1.0, May 2013, Q-Chem Inc. Pittsburgh 
 -------------------------------------------------------
 ---------------------------------------
  Cycle       Energy         DIIS Error
 ---------------------------------------
    1   -2291.1482450445      1.90E-04
 K construction time:  CPU 1132.39 s  wall 74.79 s
    2   -2291.1504517369      1.96E-05
 K construction time:  CPU 814.63 s  wall 53.80 s
    3   -2291.1505415337      1.66E-05
 K construction time:  CPU 766.42 s  wall 50.67 s
    4   -2291.1505702778      8.40E-06
 K construction time:  CPU 721.76 s  wall 47.69 s
    5   -2291.1505804322      2.69E-06
 K construction time:  CPU 664.22 s  wall 43.86 s
    6   -2291.1505814529      1.18E-06
 K construction time:  CPU 604.38 s  wall 39.79 s
    7   -2291.1505816457      3.63E-07
 K construction time:  CPU 546.85 s  wall 36.06 s
    8   -2291.1505816702      1.81E-07
 K construction time:  CPU 495.37 s  wall 32.67 s
    9   -2291.1505816765      6.93E-08
 K construction time:  CPU 437.90 s  wall 28.65 s
   10   -2291.1505816780      2.87E-08
 K construction time:  CPU 393.68 s  wall 25.90 s
   11   -2291.1505816769      1.19E-08
 K construction time:  CPU 348.39 s  wall 22.81 s
   12   -2291.1505816790      5.51E-09 Convergence criterion met
 ---------------------------------------
 SCF time:  CPU 10849.59 s  wall 735.20 s
 SCF   energy in the final basis set = -2291.1505816790
 Total energy in the final basis set = -2291.1505816790
 
 --------------------------------------------------------------
 
                    Orbital Energies (a.u.)
 --------------------------------------------------------------
 
 Alpha MOs
 -- Occupied --
-89.146 -89.099 -89.079 -14.482 -14.479 -14.463 -14.462 -14.444
-14.433 -10.355 -10.351 -10.350 -10.346 -10.344 -10.344 -10.342
-10.341 -10.339 -10.336 -10.335 -10.330 -10.326 -10.323 -10.320
-10.309 -10.300 -10.298 -10.295 -10.293  -8.156  -8.114  -8.095
 -6.106  -6.101  -6.100  -6.062  -6.059  -6.057  -6.044  -6.040
 -6.038  -1.143  -1.102  -1.068  -1.048  -1.030  -1.014  -1.003
 -0.986  -0.925  -0.911  -0.896  -0.879  -0.870  -0.853  -0.838
 -0.812  -0.777  -0.772  -0.748  -0.738  -0.731  -0.716  -0.711
 -0.672  -0.655  -0.649  -0.629  -0.628  -0.620  -0.607  -0.603
 -0.587  -0.576  -0.567  -0.560  -0.557  -0.548  -0.543  -0.526
 -0.512  -0.508  -0.501  -0.499  -0.493  -0.492  -0.486  -0.483
 -0.473  -0.464  -0.464  -0.461  -0.451  -0.443  -0.429  -0.426
 -0.418  -0.411  -0.392  -0.377  -0.372  -0.360  -0.358  -0.351
 -0.344  -0.338  -0.334  -0.334  -0.321  -0.262
 -- Virtual --
 -0.055  -0.024   0.024   0.032   0.042   0.051   0.070   0.073
  0.085   0.090   0.119   0.124   0.125   0.129   0.133   0.137
  0.148   0.153   0.156   0.164   0.170   0.176   0.183   0.192
  0.200   0.208   0.210   0.216   0.225   0.229   0.244   0.248
  0.258   0.267   0.268   0.276   0.284   0.288   0.293   0.295
  0.302   0.305   0.307   0.315   0.318   0.324   0.324   0.332
  0.334   0.339   0.343   0.346   0.349   0.351   0.355   0.360
  0.366   0.370   0.371   0.377   0.382   0.384   0.385   0.390
  0.391   0.392   0.398   0.400   0.404   0.410   0.411   0.413
  0.414   0.417   0.422   0.426   0.432   0.435   0.436   0.442
  0.444   0.447   0.450   0.456   0.458   0.460   0.464   0.464
  0.469   0.474   0.476   0.478   0.483   0.485   0.490   0.491
  0.494   0.503   0.505   0.506   0.513   0.514   0.521   0.522
  0.526   0.530   0.533   0.537   0.539   0.542   0.550   0.556
  0.560   0.560   0.572   0.576   0.581   0.589   0.596   0.599
  0.603   0.609   0.611   0.615   0.622   0.629   0.637   0.642
  0.642   0.650   0.654   0.659   0.664   0.668   0.671   0.673
  0.677   0.690   0.694   0.699   0.708   0.714   0.717   0.722
  0.726   0.730   0.733   0.734   0.741   0.746   0.748   0.754
  0.765   0.767   0.770   0.771   0.777   0.781   0.784   0.791
  0.798   0.800   0.801   0.809   0.814   0.816   0.823   0.825
  0.832   0.835   0.840   0.845   0.847   0.852   0.853   0.858
  0.863   0.869   0.872   0.873   0.878   0.887   0.894   0.904
  0.907   0.910   0.917   0.924   0.927   0.930   0.932   0.941
  0.947   0.950   0.952   0.958   0.961   0.963   0.969   0.975
  0.982   0.986   0.989   1.000   1.000   1.009   1.013   1.021
  1.025   1.031   1.037   1.042   1.047   1.051   1.055   1.060
  1.061   1.067   1.078   1.086   1.088   1.095   1.099   1.102
  1.104   1.107   1.112   1.116   1.118   1.131   1.137   1.140
  1.147   1.156   1.161   1.171   1.180   1.183   1.189   1.194
  1.197   1.208   1.213   1.217   1.233   1.235   1.239   1.245
  1.253   1.263   1.268   1.274   1.279   1.295   1.299   1.303
  1.308   1.311   1.327   1.332   1.339   1.342   1.353   1.355
  1.360   1.368   1.372   1.377   1.379   1.382   1.389   1.392
  1.401   1.408   1.410   1.421   1.426   1.427   1.439   1.440
  1.445   1.452   1.457   1.462   1.467   1.477   1.480   1.483
  1.489   1.496   1.505   1.507   1.511   1.514   1.519   1.536
  1.549   1.560   1.565   1.570   1.580   1.581   1.587   1.600
  1.609   1.612   1.619   1.626   1.631   1.640   1.644   1.648
  1.656   1.659   1.668   1.673   1.682   1.687   1.694   1.701
  1.709   1.710   1.723   1.727   1.732   1.739   1.743   1.749
  1.762   1.769   1.780   1.789   1.791   1.800   1.805   1.808
  1.818   1.837   1.844   1.856   1.863   1.873   1.886   1.888
  1.896   1.908   1.915   1.918   1.931   1.937   1.944   1.949
  1.958   1.973   1.977   1.983   1.987   1.990   2.000   2.006
  2.013   2.017   2.037   2.041   2.044   2.055   2.062   2.067
  2.073   2.090   2.103   2.103   2.110   2.112   2.127   2.129
  2.139   2.156   2.166   2.176   2.178   2.182   2.184   2.193
  2.201   2.205   2.218   2.219   2.232   2.244   2.251   2.256
  2.262   2.279   2.291   2.294   2.296   2.303   2.313   2.318
  2.322   2.326   2.340   2.348   2.351   2.367   2.369   2.373
  2.386   2.391   2.396   2.403   2.415   2.421   2.425   2.432
  2.437   2.438   2.455   2.457   2.464   2.469   2.475   2.482
  2.489   2.494   2.511   2.519   2.524   2.529   2.531   2.533
  2.540   2.543   2.552   2.554   2.556   2.563   2.589   2.604
  2.612   2.614   2.623   2.631   2.637   2.642   2.654   2.659
  2.662   2.666   2.677   2.679   2.690   2.697   2.711   2.715
  2.727   2.733   2.738   2.758   2.765   2.775   2.777   2.778
  2.783   2.788   2.798   2.807   2.809   2.816   2.821   2.833
  2.838   2.845   2.849   2.858   2.865   2.871   2.878   2.880
  2.881   2.890   2.892   2.907   2.915   2.922   2.928   2.930
  2.943   2.944   2.949   2.951   2.958   2.969   2.970   2.980
  2.985   2.993   2.996   3.003   3.005   3.010   3.014   3.019
  3.023   3.029   3.034   3.041   3.048   3.053   3.058   3.061
  3.067   3.069   3.070   3.077   3.080   3.082   3.085   3.088
  3.093   3.096   3.104   3.104   3.116   3.119   3.123   3.127
  3.137   3.147   3.148   3.157   3.159   3.162   3.165   3.169
  3.172   3.176   3.182   3.190   3.196   3.197   3.203   3.210
  3.214   3.216   3.218   3.223   3.227   3.232   3.236   3.241
  3.245   3.249   3.254   3.260   3.262   3.263   3.269   3.275
  3.278   3.282   3.289   3.296   3.298   3.299   3.303   3.307
  3.310   3.315   3.317   3.323   3.329   3.337   3.338   3.344
  3.349   3.350   3.353   3.371   3.378   3.385   3.387   3.392
  3.399   3.401   3.404   3.416   3.419   3.420   3.427   3.431
  3.435   3.444   3.453   3.457   3.463   3.466   3.472   3.476
  3.479   3.487   3.490   3.497   3.507   3.511   3.513   3.520
  3.526   3.531   3.536   3.552   3.565   3.569   3.572   3.581
  3.585   3.596   3.614   3.617   3.622   3.632   3.641   3.649
  3.656   3.668   3.674   3.682   3.691   3.693   3.702   3.710
  3.714   3.721   3.732   3.736   3.744   3.749   3.751   3.757
  3.768   3.776   3.780   3.788   3.793   3.803   3.807   3.816
  3.817   3.830   3.831   3.843   3.852   3.857   3.873   3.881
  3.892   3.896   3.906   3.913   3.915   3.923   3.928   3.930
  3.934   3.936   3.939   3.951   3.957   3.960   3.966   3.983
  3.983   3.993   3.999   4.006   4.017   4.023   4.029   4.039
  4.050   4.060   4.072   4.076   4.078   4.085   4.093   4.103
  4.113   4.116   4.122   4.147   4.154   4.163   4.170   4.175
  4.186   4.199   4.200   4.205   4.207   4.215   4.218   4.221
  4.231   4.235   4.240   4.250   4.256   4.265   4.270   4.280
  4.286   4.289   4.302   4.315   4.324   4.326   4.329   4.336
  4.343   4.353   4.356   4.363   4.368   4.380   4.392   4.399
  4.411   4.411   4.431   4.433   4.437   4.440   4.446   4.454
  4.461   4.480   4.495   4.497   4.513   4.523   4.526   4.534
  4.545   4.554   4.560   4.571   4.587   4.592   4.604   4.614
  4.628   4.638   4.646   4.650   4.663   4.675   4.685   4.695
  4.711   4.727   4.739   4.747   4.754   4.778   4.785   4.791
  4.800   4.807   4.812   4.815   4.830   4.845   4.855   4.867
  4.877   4.881   4.885   4.889   4.903   4.917   4.925   4.936
  4.937   4.950   4.957   4.970   4.973   4.979   4.987   4.992
  4.997   5.005   5.010   5.023   5.033   5.047   5.048   5.056
  5.074   5.083   5.098   5.102   5.108   5.115   5.119   5.130
  5.139   5.147   5.150   5.160   5.172   5.177   5.181   5.191
  5.212   5.226   5.244   5.250   5.267   5.304   5.312   5.317
  5.321   5.345   5.354   5.377   5.383   5.405   5.427   5.428
  5.455   5.466   5.477   5.492   5.497   5.501   5.527   5.542
  5.563   5.578   5.579   5.591   5.599   5.610   5.629   5.649
  5.675   5.700   5.720   5.722   5.744   5.753   5.754   5.790
  5.800   5.839   5.841   5.861   5.884   5.900   5.915   5.929
  5.954   5.984   6.021   6.046   6.086   6.134   6.170   6.184
  6.207   6.247   6.258   6.306   6.347   6.358   6.385   6.439
  6.447   6.491   6.649   6.876   6.990   7.079   8.070   8.880
  9.816  10.226  10.668  11.127  11.244  11.700  12.015  12.152
 12.432  12.635  12.758  12.832  12.867  12.962  13.101  13.201
 13.336  13.425  13.588  14.187  14.437  14.669  15.069  15.123
 --------------------------------------------------------------
 
          Ground-State Mulliken Net Atomic Charges

     Atom                 Charge (a.u.)
  ----------------------------------------
      1 C                    -0.092617
      2 C                    -0.129462
      3 C                    -0.080606
      4 C                    -0.118598
      5 N                    -0.145200
      6 C                     0.082693
      7 C                     0.098990
      8 N                    -0.176858
      9 C                    -0.018283
     10 C                    -0.085300
     11 N                    -0.217784
     12 C                     0.051644
     13 C                     0.061620
     14 S                     0.405430
     15 N                    -0.305660
     16 C                    -0.070406
     17 S                     0.172518
     18 C                     0.061567
     19 C                    -0.055444
     20 N                    -0.169034
     21 C                     0.067569
     22 C                    -0.010683
     23 C                    -0.046390
     24 N                    -0.162574
     25 C                    -0.143150
     26 S                     0.098096
     27 C                    -0.044735
     28 C                    -0.159419
     29 C                    -0.180149
     30 H                     0.132875
     31 H                     0.120230
     32 H                     0.119414
     33 H                     0.137666
     34 H                     0.138262
     35 H                     0.128397
     36 H                     0.141169
     37 H                     0.126906
     38 H                     0.130565
     39 H                     0.136740
  ----------------------------------------
  Sum of atomic charges =     0.000000

 -----------------------------------------------------------------
                    Cartesian Multipole Moments
 -----------------------------------------------------------------
    Charge (ESU x 10^10)
                 0.0000
    Dipole Moment (Debye)
         X      -0.3358      Y       1.5224      Z       0.4139
       Tot       1.6130
    Quadrupole Moments (Debye-Ang)
        XX    -151.5414     XY       2.9040     YY    -164.1881
        XZ       3.0454     YZ       1.0839     ZZ    -187.2859
    Octopole Moments (Debye-Ang^2)
       XXX     105.3880    XXY      14.6035    XYY     -44.6589
       YYY      31.7457    XXZ     -10.9531    XYZ       9.5367
       YYZ      10.5716    XZZ       6.9924    YZZ      -7.3764
       ZZZ       0.2087
    Hexadecapole Moments (Debye-Ang^3)
      XXXX  -15849.6939   XXXY     540.8096   XXYY   -3516.1028
      XYYY    -146.5798   YYYY   -3479.9305   XXXZ      60.9589
      XXYZ      58.3046   XYYZ      -2.9656   YYYZ      24.5118
      XXZZ   -3451.4795   XYZZ     -31.3533   YYZZ    -733.5376
      XZZZ     -14.1805   YZZZ      -3.9943   ZZZZ    -275.7440
 -----------------------------------------------------------------
 Calculating analytic gradient of the SCF energy
 K construction time:  CPU 2996.55 s  wall 189.71 s
 Gradient of SCF Energy
            1           2           3           4           5           6
    1   0.0000094   0.0002861  -0.0001112  -0.0003024  -0.0000852   0.0001814
    2  -0.0001527   0.0001937   0.0001365   0.0003821   0.0001612  -0.0004379
    3  -0.0001430   0.0001621   0.0000401  -0.0006128   0.0001517   0.0011532
            7           8           9          10          11          12
    1  -0.0001164  -0.0001716   0.0001699  -0.0001850  -0.0000824   0.0002222
    2  -0.0002250   0.0000265   0.0000795  -0.0001136  -0.0000839   0.0001676
    3  -0.0012012   0.0004771   0.0002795   0.0000793  -0.0001556   0.0003586
           13          14          15          16          17          18
    1  -0.0000398   0.0001166   0.0003062  -0.0003274  -0.0004105  -0.0000776
    2   0.0002131  -0.0003575  -0.0001277   0.0006083   0.0002011  -0.0001583
    3  -0.0000118   0.0000150  -0.0000815  -0.0001270  -0.0006962   0.0004423
           19          20          21          22          23          24
    1   0.0002719   0.0003691  -0.0000987   0.0001945   0.0000212   0.0003363
    2  -0.0004060  -0.0003619   0.0000727  -0.0002546   0.0002697   0.0000944
    3   0.0003718  -0.0002081   0.0000215  -0.0001640  -0.0001117  -0.0000943
           25          26          27          28          29          30
    1  -0.0003523  -0.0001638   0.0001191   0.0000948   0.0000728  -0.0000095
    2   0.0000206   0.0000551   0.0000511  -0.0001256   0.0001752  -0.0000664
    3   0.0003404   0.0005173  -0.0000467  -0.0001098  -0.0004905   0.0000413
           31          32          33          34          35          36
    1  -0.0000828   0.0000879  -0.0000525  -0.0002365  -0.0000582  -0.0001037
    2  -0.0001499  -0.0000737  -0.0000319   0.0003609  -0.0000366   0.0000101
    3  -0.0001113  -0.0000060  -0.0000640  -0.0001878   0.0000697  -0.0002127
           37          38          39
    1   0.0001568  -0.0000034   0.0000548
    2  -0.0000366  -0.0000506  -0.0000288
    3   0.0000449   0.0002637   0.0000066
 Max gradient component =       1.201E-03
 RMS gradient           =       2.730E-04
 Gradient time:  CPU 3458.57 s  wall 221.19 s
 Geometry Optimization Parameters
   NAtoms,    NIC,     NZ,  NCons,   NDum,   NFix, NCnnct, MaxDiis
       39     293       0       3       0       0       0       0

 Cartesian Hessian Update
 Hessian Updated using BFGS Update


** CONSTRAINED OPTIMIZATION IN DELOCALIZED INTERNAL COORDINATES **
   Searching for a Minimum

   Optimization Cycle:   3

                       Coordinates (Angstroms)
     ATOM                X               Y               Z
      1  C         7.6706484474    0.3131765314   -0.2151108688
      2  C         7.0101983851    1.4699961960    0.1659224261
      3  C         6.9111139254   -0.8038167164   -0.5232735294
      4  C         5.6302868683    1.4616131991    0.2255661181
      5  N         5.5864905915   -0.8287064942   -0.4629843236
      6  C         4.9572001688    0.2828968073   -0.0899187578
      7  C         3.4735830437    0.2559987067   -0.0487770128
      8  N         2.8519386316    1.3982331408   -0.1495957059
      9  C         2.7052747223   -0.9428112315    0.1096186353
     10  C         1.4991390595    1.4836964026   -0.1419540223
     11  N         3.1469665735   -2.1890726915    0.2913519380
     12  C         1.2762025788   -0.8481513240    0.1137415215
     13  C         0.6339195745    0.4209991612   -0.0242791643
     14  S         1.8493189601   -3.1198345779    0.4267565536
     15  N         0.6754940949   -2.0262023458    0.2769276600
     16  C        -0.8127948859    0.5818752777   -0.0215040913
     17  S        -1.8881260326   -0.7529552387   -0.1505830098
     18  C        -1.5666945676    1.7506306916    0.0653299889
     19  C        -3.3128235592    0.1799307054   -0.0817288441
     20  N        -1.0661726383    3.0127895407    0.1818321550
     21  C        -2.9796052737    1.5250620693    0.0312927648
     22  C        -4.6239822530   -0.4291822675   -0.1335454916
     23  C        -1.9419727758    3.9666843485    0.2561088319
     24  N        -3.8682149751    2.5515418925    0.1150025173
     25  C        -5.8298625729    0.1754138202   -0.3691757973
     26  S        -4.8395176466   -2.1310315443    0.1185778375
     27  C        -3.3510804314    3.7364039781    0.2226196898
     28  C        -6.9151027974   -0.7326871147   -0.3599124936
[...]
     39  H        -7.1406802851   -2.8978569159   -0.0958052707
   Point Group: c1    Number of degrees of freedom:   111


   Energy is  -2291.150640526

              Constraints and their Current Values
                                        Value     Constraint
   Dihedral:        4   6   7   8       21.822       21.822
   Dihedral:       10  13  16  17      169.064      169.064
   Dihedral:       17  19  22  25     -165.000     -165.000
 Hessian Updated using BFGS Update

103 Hessian modes will be used to form the next step
  Hessian Eigenvalues:
     0.009960    0.023367    0.040314    0.045000    0.045000    0.045000
     0.045000    0.045000    0.045000    0.045000    0.045001    0.045001
     0.045001    0.045001    0.045001    0.045001    0.045002    0.045002
     0.045003    0.045004    0.045004    0.045006    0.045008    0.045021
     0.045033    0.045065    0.045169    0.045396    0.048035    0.156978
     0.159460    0.159950    0.159998    0.159999    0.160011    0.160039
     0.160104    0.160367    0.219981    0.221543    0.224168    0.224338
     0.233428    0.239356    0.243619    0.244566    0.247773    0.248685
     0.249076    0.249780    0.249950    0.249961    0.249975    0.249986
     0.249990    0.252270    0.260145    0.279074    0.312260    0.327050
     0.334452    0.340316    0.341523    0.354098    0.354662    0.355764
     0.357135    0.359049    0.360723    0.360898    0.361030    0.363743
     0.364170    0.371200    0.372761    0.379501    0.389131    0.393207
     0.401777    0.407629    0.420236    0.432491    0.437684    0.460491
     0.470178    0.471918    0.473988    0.481703    0.485219    0.485575
     0.490336    0.503949    0.519234    0.523322    0.525539    0.556621
     0.572436    0.579421    0.589663    0.634649    0.642710    0.666345
     0.680497

 Minimum Search - Taking Simple RFO Step
 Searching for Lamda that Minimizes Along All modes
 Value Taken    Lamda =   0.00000000
 Step Taken.  Stepsize is  0.003882

                             Maximum     Tolerance    Cnvgd?
         Gradient           0.000052      0.000300     YES
         Displacement       0.001122      0.001200     YES
         Energy change     -0.000001      0.000001      NO

 Final energy is   -2291.15064052602     


 ******************************
 **  OPTIMIZATION CONVERGED  **
 ******************************

                       Coordinates (Angstroms)
     ATOM                X               Y               Z
      1  C         7.6666374825    0.3016471527   -0.2847511677
      2  C         7.0220424524    1.4557532458    0.1294338747
      3  C         6.8939095564   -0.8079163388   -0.5876109706
      4  C         5.6444185092    1.4526431142    0.2257612847
      5  N         5.5711455765   -0.8276385657   -0.4927422016
      6  C         4.9572360339    0.2816938692   -0.0873180437
      7  C         3.4748361690    0.2613864372   -0.0157718763
      8  N         2.8554031535    1.4066000443   -0.0918416507
      9  C         2.7054411389   -0.9360961998    0.1483115899
     10  C         1.5026720291    1.4941616196   -0.0677796226
     11  N         3.1471574437   -2.1828805779    0.3256860267
     12  C         1.2770871129   -0.8385873628    0.1730092448
     13  C         0.6360970991    0.4319491169    0.0476144183
     14  S         1.8493580600   -3.1105005325    0.4808069345
     15  N         0.6757144151   -2.0147460320    0.3461499215
     16  C        -0.8109109434    0.5893899745    0.0455254159
     17  S        -1.8794348335   -0.7512946726   -0.0863629975
     18  C        -1.5709422042    1.7568304194    0.1018696604
     19  C        -3.3083388259    0.1780023104   -0.0621934809
     20  N        -1.0796546729    3.0234645143    0.2114407829
     21  C        -2.9821000604    1.5250323443    0.0422374283
     22  C        -4.6169830924   -0.4334161849   -0.1382014809
     23  C        -1.9614830426    3.9735494100    0.2549801466
     24  N        -3.8778252900    2.5476025049    0.0955968389
     25  C        -5.8162108684    0.1688323975   -0.4094383767
     26  S        -4.8380505224   -2.1335051850    0.1202059198
     27  C        -3.3688795718    3.7363473553    0.1974208920
     28  C        -6.9021165056   -0.7385215024   -0.4158396134
     29  C        -6.5247186460   -2.0166137524   -0.1501415021
     30  H         8.7426242173    0.2588977926   -0.3770783545
     31  H         7.5861359038    2.3457034923    0.3734642409
     32  H         7.3582411700   -1.7256413459   -0.9297374311
     33  H         5.0912627451    2.3268703189    0.5325664760
     34  H         1.1063941445    2.4940804766   -0.1453959120
     35  H        -1.5956642716    4.9908935835    0.3416283648
     36  H        -5.9007638240    1.2281076396   -0.5884587398
     37  H        -4.0528495593    4.5764271038    0.2433549428
     38  H        -7.9234994549   -0.4517018021   -0.6140719080
     39  H        -7.1406802851   -2.8978569159   -0.0958052707

Z-matrix Print:
$molecule
0 1
S 
C  1 1.704683
C  2 1.389902 1 109.429429
N  3 1.360449 2 125.230209 1 179.630917 0
C  4 1.297115 3 115.695403 2 -179.772507 0
H  5 1.084278 4 117.766487 3 179.954456 0
C  5 1.428406 4 122.816238 3 0.177060 0
H  7 1.084583 5 119.426977 4 179.909615 0
N  7 1.296988 5 123.155088 4 0.057465 0
C  9 1.362986 7 116.000250 5 -0.172855 0
C  10 1.394181 9 125.797569 7 179.638565 0
C  2 1.446430 1 121.815952 3 179.768196 0
C  12 1.369095 2 128.094007 1 164.999993 0
H  13 1.077618 12 122.278833 2 1.007912 0
C  13 1.415105 12 113.016844 2 -179.455046 0
H  15 1.079252 13 123.824478 12 179.722010 0
C  15 1.358876 13 112.896626 12 -0.048888 0
H  17 1.076546 15 128.380620 13 179.824688 0
C  11 1.455549 10 129.232076 9 2.016651 0
C  19 1.375705 11 122.859398 10 8.842276 0
H  20 1.078378 19 119.373774 11 -1.180472 0
N  20 1.355776 19 125.459041 11 178.967487 0
C  22 1.304223 20 121.975221 19 -0.604010 0
C  19 1.428585 11 122.845869 10 -170.998290 0
N  24 1.332282 19 126.442955 11 2.409985 0
C  24 1.431891 19 120.439640 11 -179.041741 0
N  26 1.334558 24 113.047374 19 -177.697194 0
C  23 1.484264 22 117.356281 20 -178.439713 0
N  28 1.331117 23 117.638972 22 156.196691 0
C  29 1.326308 28 117.992739 23 -178.537899 0
H  30 1.083916 29 115.927010 28 179.438778 0
C  30 1.385628 29 123.535712 28 -0.164354 0
H  32 1.080786 30 120.321518 29 -179.765564 0
C  32 1.385284 30 118.228515 29 0.523190 0
H  34 1.081556 32 120.683608 30 179.842065 0
C  34 1.380991 32 118.892019 30 -0.135068 0
H  36 1.079066 34 121.963731 32 179.314697 0
S  27 1.602755 26 106.592128 24 -0.805672 0
S  17 1.712192 15 111.633756 13 -0.282871 0
$end

 
 --------------------------------------------------------------
 
                    Orbital Energies (a.u.)
 --------------------------------------------------------------
 
 Alpha MOs
 -- Occupied --
-89.146 -89.099 -89.079 -14.482 -14.479 -14.463 -14.462 -14.445
-14.434 -10.355 -10.351 -10.350 -10.346 -10.344 -10.344 -10.342
-10.341 -10.338 -10.336 -10.335 -10.330 -10.326 -10.323 -10.320
-10.309 -10.301 -10.298 -10.295 -10.293  -8.156  -8.113  -8.095
 -6.106  -6.101  -6.100  -6.062  -6.058  -6.057  -6.044  -6.040
 -6.037  -1.143  -1.102  -1.068  -1.048  -1.030  -1.014  -1.003
 -0.986  -0.925  -0.911  -0.896  -0.879  -0.870  -0.853  -0.838
 -0.812  -0.777  -0.772  -0.749  -0.738  -0.731  -0.716  -0.711
 -0.672  -0.655  -0.649  -0.629  -0.628  -0.620  -0.607  -0.603
 -0.587  -0.576  -0.567  -0.560  -0.557  -0.548  -0.543  -0.526
 -0.512  -0.508  -0.501  -0.499  -0.493  -0.492  -0.486  -0.483
 -0.473  -0.464  -0.464  -0.461  -0.451  -0.443  -0.429  -0.426
 -0.418  -0.411  -0.392  -0.377  -0.372  -0.360  -0.358  -0.351
 -0.344  -0.338  -0.335  -0.334  -0.321  -0.262
 -- Virtual --
 -0.055  -0.024   0.024   0.032   0.042   0.051   0.070   0.073
  0.085   0.090   0.119   0.124   0.125   0.129   0.133   0.137
  0.148   0.153   0.156   0.165   0.170   0.176   0.183   0.192
  0.200   0.208   0.210   0.216   0.224   0.229   0.244   0.248
  0.259   0.267   0.268   0.276   0.284   0.287   0.293   0.296
  0.302   0.305   0.307   0.315   0.318   0.324   0.324   0.332
  0.334   0.339   0.343   0.346   0.350   0.351   0.355   0.359
  0.366   0.370   0.371   0.378   0.382   0.384   0.385   0.390
  0.392   0.392   0.398   0.400   0.404   0.410   0.411   0.413
  0.414   0.417   0.422   0.426   0.432   0.435   0.437   0.442
  0.444   0.447   0.450   0.456   0.458   0.460   0.464   0.464
  0.469   0.474   0.476   0.478   0.483   0.485   0.490   0.491
  0.494   0.503   0.506   0.507   0.512   0.514   0.521   0.522
  0.526   0.530   0.533   0.537   0.539   0.542   0.549   0.557
  0.560   0.560   0.572   0.577   0.583   0.589   0.595   0.600
  0.604   0.608   0.611   0.615   0.622   0.629   0.637   0.641
  0.642   0.651   0.654   0.659   0.664   0.668   0.671   0.672
  0.677   0.690   0.694   0.700   0.709   0.715   0.718   0.721
  0.726   0.730   0.733   0.735   0.741   0.747   0.748   0.755
  0.764   0.767   0.770   0.771   0.776   0.781   0.784   0.791
  0.798   0.800   0.802   0.809   0.813   0.815   0.823   0.825
  0.831   0.835   0.841   0.845   0.846   0.852   0.853   0.859
  0.863   0.870   0.872   0.873   0.879   0.888   0.894   0.903
  0.906   0.910   0.917   0.924   0.927   0.930   0.932   0.940
  0.948   0.949   0.953   0.958   0.961   0.964   0.969   0.975
  0.982   0.986   0.989   1.000   1.002   1.011   1.012   1.022
  1.025   1.032   1.037   1.043   1.047   1.051   1.056   1.061
  1.062   1.068   1.078   1.086   1.088   1.095   1.099   1.102
  1.105   1.107   1.113   1.117   1.118   1.131   1.136   1.141
  1.147   1.157   1.161   1.171   1.179   1.184   1.189   1.194
  1.198   1.207   1.213   1.217   1.233   1.235   1.240   1.246
  1.253   1.262   1.268   1.276   1.278   1.296   1.299   1.303
  1.309   1.312   1.326   1.333   1.338   1.343   1.353   1.355
  1.360   1.368   1.373   1.377   1.379   1.381   1.389   1.392
  1.402   1.409   1.410   1.420   1.426   1.427   1.439   1.440
  1.445   1.452   1.457   1.461   1.466   1.476   1.480   1.483
  1.488   1.496   1.506   1.507   1.510   1.515   1.520   1.536
  1.550   1.560   1.565   1.570   1.579   1.581   1.587   1.600
  1.609   1.612   1.619   1.627   1.631   1.640   1.645   1.648
  1.656   1.659   1.668   1.672   1.682   1.687   1.695   1.701
  1.709   1.709   1.724   1.727   1.733   1.739   1.743   1.750
  1.763   1.769   1.780   1.789   1.792   1.802   1.805   1.808
  1.818   1.838   1.843   1.857   1.864   1.873   1.887   1.889
  1.896   1.908   1.915   1.918   1.931   1.937   1.944   1.949
  1.960   1.973   1.978   1.982   1.986   1.990   2.000   2.006
  2.013   2.017   2.038   2.042   2.044   2.054   2.062   2.068
  2.072   2.091   2.101   2.104   2.110   2.112   2.127   2.129
  2.139   2.156   2.165   2.175   2.178   2.181   2.184   2.192
  2.202   2.205   2.218   2.220   2.232   2.245   2.252   2.256
  2.262   2.279   2.291   2.294   2.296   2.303   2.313   2.318
  2.322   2.326   2.339   2.348   2.350   2.367   2.370   2.373
  2.385   2.390   2.395   2.403   2.416   2.421   2.426   2.432
  2.437   2.438   2.455   2.457   2.464   2.470   2.475   2.481
  2.492   2.494   2.512   2.519   2.523   2.526   2.530   2.533
  2.541   2.543   2.553   2.555   2.557   2.563   2.589   2.602
  2.612   2.614   2.623   2.630   2.637   2.642   2.654   2.659
  2.662   2.666   2.676   2.680   2.691   2.697   2.711   2.715
  2.727   2.733   2.737   2.757   2.765   2.775   2.777   2.778
  2.783   2.787   2.799   2.807   2.809   2.816   2.822   2.834
  2.838   2.845   2.849   2.859   2.865   2.871   2.877   2.881
  2.882   2.891   2.892   2.908   2.916   2.923   2.927   2.930
  2.943   2.944   2.949   2.951   2.958   2.969   2.971   2.979
  2.984   2.992   2.996   3.003   3.005   3.010   3.014   3.019
  3.023   3.029   3.034   3.041   3.048   3.053   3.058   3.060
  3.067   3.068   3.070   3.077   3.080   3.082   3.085   3.089
  3.093   3.097   3.103   3.105   3.116   3.120   3.123   3.127
  3.138   3.147   3.148   3.157   3.160   3.162   3.166   3.169
  3.173   3.176   3.181   3.190   3.195   3.196   3.204   3.210
  3.215   3.216   3.218   3.224   3.228   3.232   3.236   3.241
  3.244   3.249   3.254   3.259   3.263   3.263   3.270   3.275
  3.279   3.282   3.290   3.296   3.299   3.299   3.304   3.308
  3.310   3.316   3.317   3.323   3.329   3.337   3.338   3.344
  3.349   3.350   3.352   3.371   3.379   3.384   3.388   3.391
  3.398   3.400   3.404   3.416   3.419   3.421   3.427   3.432
  3.435   3.445   3.453   3.457   3.463   3.466   3.472   3.476
  3.479   3.486   3.490   3.497   3.508   3.512   3.513   3.521
  3.526   3.530   3.536   3.552   3.564   3.568   3.573   3.580
  3.584   3.596   3.614   3.617   3.622   3.632   3.642   3.649
  3.656   3.668   3.674   3.682   3.690   3.693   3.702   3.710
  3.714   3.721   3.733   3.736   3.744   3.749   3.752   3.758
  3.768   3.775   3.780   3.788   3.794   3.803   3.808   3.816
  3.817   3.830   3.831   3.843   3.853   3.857   3.873   3.881
  3.893   3.896   3.905   3.912   3.916   3.923   3.928   3.930
  3.934   3.936   3.939   3.951   3.958   3.960   3.967   3.983
  3.983   3.993   4.000   4.006   4.017   4.023   4.028   4.038
  4.050   4.061   4.073   4.075   4.079   4.085   4.093   4.104
  4.113   4.115   4.122   4.147   4.154   4.163   4.170   4.175
  4.186   4.198   4.201   4.203   4.206   4.215   4.219   4.221
  4.231   4.236   4.240   4.250   4.255   4.265   4.269   4.280
  4.285   4.290   4.302   4.314   4.325   4.327   4.330   4.337
  4.343   4.352   4.357   4.362   4.369   4.380   4.391   4.399
  4.411   4.411   4.430   4.435   4.437   4.439   4.446   4.454
  4.461   4.480   4.495   4.497   4.513   4.524   4.525   4.536
  4.546   4.555   4.561   4.572   4.588   4.591   4.604   4.615
  4.628   4.637   4.647   4.650   4.663   4.675   4.685   4.696
  4.711   4.727   4.739   4.748   4.755   4.779   4.784   4.790
  4.800   4.807   4.812   4.815   4.830   4.845   4.856   4.868
  4.877   4.882   4.884   4.889   4.903   4.917   4.925   4.936
  4.936   4.950   4.958   4.970   4.974   4.979   4.987   4.991
  4.997   5.006   5.010   5.023   5.033   5.047   5.048   5.056
  5.074   5.083   5.098   5.103   5.110   5.117   5.120   5.130
  5.139   5.148   5.149   5.159   5.172   5.177   5.181   5.190
  5.212   5.226   5.243   5.251   5.267   5.304   5.311   5.317
  5.321   5.345   5.354   5.377   5.381   5.406   5.427   5.428
  5.455   5.466   5.477   5.492   5.496   5.501   5.528   5.542
  5.562   5.578   5.580   5.591   5.600   5.611   5.629   5.648
  5.676   5.701   5.719   5.722   5.743   5.753   5.755   5.789
  5.800   5.839   5.840   5.861   5.884   5.900   5.916   5.930
  5.954   5.985   6.021   6.046   6.086   6.135   6.170   6.185
  6.207   6.247   6.259   6.307   6.349   6.359   6.384   6.440
  6.447   6.490   6.649   6.876   6.990   7.078   8.071   8.880
  9.813  10.230  10.668  11.130  11.246  11.698  12.019  12.159
 12.434  12.635  12.756  12.833  12.867  12.962  13.100  13.199
 13.335  13.424  13.587  14.193  14.446  14.670  15.069  15.128
 --------------------------------------------------------------
 
          Ground-State Mulliken Net Atomic Charges

     Atom                 Charge (a.u.)
  ----------------------------------------
      1 C                    -0.092540
      2 C                    -0.129259
      3 C                    -0.080486
      4 C                    -0.118678
      5 N                    -0.145699
      6 C                     0.083086
      7 C                     0.098893
      8 N                    -0.176589
      9 C                    -0.019498
     10 C                    -0.086080
     11 N                    -0.217770
     12 C                     0.052039
     13 C                     0.063276
     14 S                     0.405174
     15 N                    -0.305427
     16 C                    -0.070319
     17 S                     0.171660
     18 C                     0.060658
     19 C                    -0.054702
     20 N                    -0.168909
     21 C                     0.068073
     22 C                    -0.010483
     23 C                    -0.046168
     24 N                    -0.162578
     25 C                    -0.142913
     26 S                     0.097635
     27 C                    -0.044895
     28 C                    -0.159441
     29 C                    -0.180035
     30 H                     0.132885
     31 H                     0.120152
     32 H                     0.119287
     33 H                     0.137383
     34 H                     0.138464
     35 H                     0.128315
     36 H                     0.141434
     37 H                     0.126888
     38 H                     0.130402
     39 H                     0.136767
  ----------------------------------------
  Sum of atomic charges =     0.000000

 -----------------------------------------------------------------
                    Cartesian Multipole Moments
 -----------------------------------------------------------------
    Charge (ESU x 10^10)
                 0.0000
    Dipole Moment (Debye)
         X      -0.3108      Y       1.5079      Z       0.3282
       Tot       1.5742
    Quadrupole Moments (Debye-Ang)
        XX    -151.3812     XY       2.7746     YY    -164.2599
        XZ       2.9764     YZ       0.9210     ZZ    -187.1988
    Octopole Moments (Debye-Ang^2)
       XXX     107.7375    XXY      14.7601    XYY     -45.5521
       YYY      30.8884    XXZ     -19.7431    XYZ       9.5933
       YYZ       7.2350    XZZ       7.2409    YZZ      -7.8335
       ZZZ      -7.0366
    Hexadecapole Moments (Debye-Ang^3)
      XXXX  -15847.9451   XXXY     546.4650   XXYY   -3511.6475
      XYYY    -147.5087   YYYY   -3478.4676   XXXZ      46.3675
      XXYZ      62.6750   XYYZ      -1.2654   YYYZ      26.0921
      XXZZ   -3442.2503   XYZZ     -31.2479   YYZZ    -735.4061
      XZZZ     -15.4824   YZZZ       1.5968   ZZZZ    -288.5051
 -----------------------------------------------------------------
Archival summary:
1\1\mn214\OPT\ProcedureUnspecified\BasisUnspecified\362010\afmv_a\SatJun1718:38:072017SatJun1718:38:072017\0\\#,OPT,ProcedureUnspecified,BasisUnspecified,\\0,1\S\C,1,1.70468\C,2,1.3899,1,109.429\N,3,1.36045,2,125.23,1,179.631,0\C,4,1.29712,3,115.695,2,-179.773,0\H,5,1.08428,4,117.766,3,179.954,0\C,5,1.42841,4,122.816,3,0.17706,0\H,7,1.08458,5,119.427,4,179.91,0\N,7,1.29699,5,123.155,4,0.057465,0\C,9,1.36299,7,116,5,-0.172855,0\C,10,1.39418,9,125.798,7,179.639,0\C,2,1.44643,1,121.816,3,179.768,0\C,12,1.36909,2,128.094,1,165,0\H,13,1.07762,12,122.279,2,1.00791,0\C,13,1.41511,12,113.017,2,-179.455,0\H,15,1.07925,13,123.824,12,179.722,0\C,15,1.35888,13,112.897,12,-0.0488876,0\H,17,1.07655,15,128.381,13,179.825,0\C,11,1.45555,10,129.232,9,2.01665,0\C,19,1.3757,11,122.859,10,8.84228,0\H,20,1.07838,19,119.374,11,-1.18047,0\N,20,1.35578,19,125.459,11,178.967,0\C,22,1.30422,20,121.975,19,-0.60401,0\C,19,1.42858,11,122.846,10,-170.998,0\N,24,1.33228,19,126.443,11,2.40998,0\C,24,1.43189,19,120.44,11,-179.042,0\N,26,1.33456,24,113.047,19,-177.697,0\C,23,1.48426,22,117.356,20,-178.44,0\N,28,1.33112,23,117.639,22,156.197,0\C,29,1.32631,28,117.993,23,-178.538,0\H,30,1.08392,29,115.927,28,179.439,0\C,30,1.38563,29,123.536,28,-0.164354,0\H,32,1.08079,30,120.322,29,-179.766,0\C,32,1.38528,30,118.229,29,0.52319,0\H,34,1.08156,32,120.684,30,179.842,0\C,34,1.38099,32,118.892,30,-0.135068,0\H,36,1.07907,34,121.964,32,179.315,0\S,27,1.60276,26,106.592,24,-0.805672,0\S,17,1.71219,15,111.634,13,-0.282871,0\\\@

 Total job time:  6608.20s(wall), 98660.78s(cpu) 
 Sat Jun 17 18:38:07 2017

        *************************************************************
        *                                                           *
        *  Thank you very much for using Q-Chem.  Have a nice day.  *
        *                                                           *
        *************************************************************


