
Running Job 1 of 1 ./6/0.qcin
qchem ./6/0.qcin_50504.0 /tmpu/cab_g/afmv_a/scratch_qchem/qchem50504/ 1
/tmpu/appuserlic/qchem4.4/serial-multicore/exe/qcprog.exe_s ./6/0.qcin_50504.0 /tmpu/cab_g/afmv_a/scratch_qchem/qchem50504/
Check license passed

                  Welcome to Q-Chem
     A Quantum Leap Into The Future Of Chemistry


 Q-Chem 4.4, Q-Chem, Inc., Pleasanton, CA (2016)

 Y. Shao,  Z. Gan,  E. Epifanovsky,  A. T. B. Gilbert,  M. Wormit,  
 J. Kussmann,  A. W. Lange,  A. Behn,  J. Deng,  X. Feng,  D. Ghosh,  
 M. Goldey,  P. R. Horn,  L. D. Jacobson,  I. Kaliman,  F. Rob,  
 R. Z. Khaliullin,  T. Kus,  A. Landau,  J. Liu,  E. I. Proynov,  Y. M. Rhee,  
 R. M. Richard,  M. A. Rohrdanz,  R. P. Steele,  E. J. Sundstrom,  
 H. L. Woodcock III,  P. M. Zimmerman,  D. Zuev,  B. Albrecht,  E. Alguire,  
 B. Austin,  S. A. Baeppler,  G. J. O. Beran,  Y. A. Bernard,  E. Berquist,  
 K. Brandhorst,  K. B. Bravaya,  S. T. Brown,  D. Casanova,  C.-M. Chang,  
 Y. Chen,  S. H. Chien,  K. D. Closser,  M. P. Coons,  D. L. Crittenden,  
 S. Dasgupta,  M. Diedenhofen,  R. A. DiStasio Jr.,  H. Do,  A. D. Dutoi,  
 R. G. Edgar,  P.-T. Fang,  S. Fatehi,  Q. Feng,  L. Fusti-Molnar,  
 A. Ghysels,  A. Golubeva-Zadorozhnaya,  J. Gomes,  A. Gunina,  
 M. W. D. Hanson-Heine,  P. H. P. Harbach,  A. W. Hauser,  J. E. Herr,  
 E. G. Hohenstein,  Z. C. Holden,  K. Hui,  T.-C. Jagau,  H. Ji,  B. Kaduk,  
 K. Khistyaev,  Jaehoon Kim,  Jihan Kim,  R. A. King,  P. Klunzinger,  
 K. Koh,  D. Kosenkov,  T. Kowalczyk,  C. M. Krauter,  A. Kunitsa,  
 K. U. Lao,  A. Laurent,  K. V. Lawler,  J. Lee,  D. Lefrancois,  S. Lehtola,  
 S. V. Levchenko,  C. Y. Lin,  Y.-S. Lin,  F. Liu,  E. Livshits,  
 R. C. Lochan,  A. Luenser,  P. Manohar,  S. F. Manzer,  S.-P. Mao,  Y. Mao,  
 N. Mardirossian,  A. V. Marenich,  L. A. Martinez-Martinez,  S. A. Maurer,  
 N. J. Mayhall,  J.-M. Mewes,  A. F. Morrison,  K. Nanda,  T. S. Nguyen-Beck,  
 C. M. Oana,  R. Olivares-Amaya,  D. P. O'Neill,  J. A. Parkhill,  
 T. M. Perrine,  R. Peverati,  P. A. Pieniazek,  F. Plasser,  A. Prociuk,  
 D. R. Rehn,  E. Rosta,  N. J. Russ,  N. Sergueev,  S. M. Sharada,  
 S. Sharma,  D. W. Small,  A. Sodt,  T. Stauch,  T. Stein,  D. Stuck,  
 Y.-C. Su,  A. J. W. Thom,  T. Tsuchimochi,  L. Vogt,  O. Vydrov,  T. Wang,  
 M. A. Watson,  J. Wenzel,  A. White,  C. F. Williams,  V. Vanovschi,  
 K. Yao,  S. Yeganeh,  S. R. Yost,  Z.-Q. You,  I. Y. Zhang,  X. Zhang,  
 Y. Zhao,  B. R. Brooks,  G. K. L. Chan,  D. M. Chipman,  C. J. Cramer,  
 W. A. Goddard III,  M. S. Gordon,  W. J. Hehre,  A. Klamt,  
 H. F. Schaefer III,  M. W. Schmidt,  C. D. Sherrill,  D. G. Truhlar,  
 A. Warshel,  X. Xu,  A. Aspuru-Guzik,  R. Baer,  A. T. Bell,  N. A. Besley,  
 J.-D. Chai,  A. Dreuw,  B. D. Dunietz,  T. R. Furlani,  S. R. Gwaltney,  
 C.-P. Hsu,  Y. Jung,  J. Kong,  D. S. Lambrecht,  W. Liang,  C. Ochsenfeld,  
 V. A. Rassolov,  L. V. Slipchenko,  J. E. Subotnik,  T. Van Voorhis,  
 J. M. Herbert,  A. I. Krylov,  P. M. W. Gill,  M. Head-Gordon

 Contributors to earlier versions of Q-Chem not listed above: 
 R. D. Adamson,  J. Baker,  E. F. C. Byrd,  A. K. Chakraborty,  C.-L. Cheng,  
 H. Dachsel,  R. J. Doerksen,  G. Hawkins,  A. Heyden,  S. Hirata,  
 G. Kedziora,  F. J. Keil,  C. Kelley,  P. P. Korambath,  W. Kurlancheek,  
 A. M. Lee,  M. S. Lee,  D. Liotard,  I. Lotan,  P. E. Maslen,  N. Nair,  
 D. Neuhauser,  R. Olson,  B. Peters,  J. Ritchie,  N. E. Schultz,  
 N. Shenvi,  A. C. Simmonett,  K. S. Thanthiriwatte,  Q. Wu,  W. Zhang

 Please cite Q-Chem as follows:
 Y. Shao et al., Mol. Phys. 113, 184-215 (2015)
 DOI: 10.1080/00268976.2014.952696

 Q-Chem 4.4.2 for Intel X86 Linux

 Parts of Q-Chem use Armadillo 5.200.1 (Boston Tea Smuggler).
 http://arma.sourceforge.net/

 Q-Chem begins on Mon Oct 15 00:52:43 2018  

Host: 
0

     Scratch files written to /tmpu/cab_g/afmv_a/scratch_qchem/qchem50504//
 Dec716 11556_ 22328  22283 4050   
Processing $rem in /tmpu/appuserlic/qchem4.4/serial-multicore/config/preferences.
 MEM_TOTAL  2000 
FILE_GEOM_ORG=        593

Checking the input file for inconsistencies... 	...done.

--------------------------------------------------------------
User input:
--------------------------------------------------------------
$comment
SP
$end

$rem
MEM_STATIC 5000
MEM_TOTAL 20000
JOBTYPE SP
EXCHANGE B3LYP
BASIS 6-31g(d,p)
$end

$molecule
0 1
O          15.929000     10.999000      7.096000
C          14.615000     10.521000      7.636000
H          13.962000     11.355000      7.922000
H          14.833000      9.993000      8.572000
H          14.096000      9.918000      6.881000
O          16.233000     12.110000      9.031000
C          16.562000     11.818000      7.897000
C          17.786000     12.368000      7.327000
H          17.398000     13.018000      6.533000
H          18.146000     11.488000      6.780000
C          18.841000     12.912000      8.298000
H          18.442000     13.797000      8.809000
H          19.107000     12.148000      9.039000
C          20.104000     13.322000      7.554000
H          20.650000     12.506000      7.064000
H          19.843000     14.028000      6.756000
C          21.182000     13.926000      8.524000
C          21.998000     12.899000      9.257000
C          21.460000     12.197000     10.360000
H          20.464000     12.343000     10.767000
C          22.225000     11.117000     10.825000
H          21.771000     10.529000     11.617000
C          23.596000     10.940000     10.524000
H          24.191000     10.248000     11.112000
C          24.136000     11.747000      9.554000
H          25.183000     11.621000      9.292000
C          23.357000     12.658000      8.886000
H          23.877000     13.350000      8.231000
C          22.237000     17.464000     12.559000
C          24.282000     17.480000     11.301000
C          23.770000     21.615000      9.484000
C          18.294000     18.405000      9.458000
C          22.643000     20.466000      6.356000
C          23.172000     16.815000     11.777000
C          19.231000     20.149000      7.443000
C          23.336000     20.792000     11.735000
C          23.520000     16.720000      7.443000
C          18.653000     17.921000      8.172000
C          21.824000     15.266000      8.109000
C          22.534000     16.922000      6.537000
C          20.012000     18.096000      6.386000
C          20.305000     20.869000      6.861000
C          23.707000     15.932000      9.765000
C          21.997000     22.077000      8.067000
C          20.861000     15.213000      9.216000
C          19.549000     15.902000      9.177000
C          22.984000     21.388000      7.339000
C          19.899000     20.917000     11.327000
C          21.611000     22.090000     10.490000
C          22.011000     21.349000     11.626000
C          23.429000     19.501000     12.297000
C          19.414000     16.542000     10.484000
C          23.222000     15.712000      8.406000
C          24.434000     18.843000     11.512000
C          19.049000     18.785000      7.204000
C          24.544000     17.000000     10.037000
C          22.404000     18.209000      5.876000
C          19.131000     18.690000     11.596000
C          24.168000     20.877000     10.641000
C          21.458000     16.228000      6.986000
C          21.069000     19.445000     12.802000
C          21.111000     18.815000      5.873000
C          24.509000     17.675000      7.653000
C          19.816000     21.623000      8.952000
C          18.901000     20.587000      8.709000
C          24.390000     18.935000      7.085000
C          18.687000     17.759000     10.626000
C          19.324000     16.672000      8.054000
C          18.956000     19.891000     11.031000
C          21.419000     15.439000     10.599000
C          25.216000     19.169000      9.224000
C          20.247000     16.836000      7.029000
C          23.310000     19.266000      6.194000
C          20.210000     18.385000     12.423000
C          24.106000     21.113000      8.177000
C          22.321000     18.819000     12.913000
C          22.478000     22.168000      9.390000
C          25.030000     17.767000      8.941000
C          24.836000     19.872000      8.045000
C          22.776000     15.802000     10.809000
C          20.489000     16.237000     11.283000
C          20.280000     21.798000     10.286000
C          24.912000     19.717000     10.457000
C          21.257000     20.159000      6.157000
C          18.422000     19.720000      9.720000
C          20.675000     21.770000      7.816000
C          20.924000     17.173000     12.306000
C          20.924000     20.705000     12.208000
O          31.529000     31.234000     19.649000
C          32.486000     31.126000     20.719000
H          33.212000     31.946000     20.783000
H          32.982000     30.150000     20.651000
H          31.986000     31.251000     21.687000
O          30.034000     29.674000     20.434000
C          30.379000     30.480000     19.612000
C          29.529000     30.634000     18.341000
H          29.673000     31.647000     17.946000
H          28.479000     30.512000     18.632000
C          30.007000     29.607000     17.280000
H          31.074000     29.818000     17.135000
H          29.888000     28.630000     17.764000
C          29.225000     29.718000     15.957000
H          28.148000     29.654000     16.153000
H          29.300000     30.777000     15.681000
C          29.684000     28.628000     14.876000
C          31.154000     28.210000     14.780000
C          32.068000     28.970000     14.088000
H          31.679000     29.875000     13.630000
C          33.407000     28.660000     14.029000
H          34.047000     29.364000     13.505000
C          33.925000     27.617000     14.789000
H          35.008000     27.554000     14.736000
C          33.018000     26.859000     15.587000
H          33.450000     26.041000     16.155000
C          31.628000     27.128000     15.545000
H          30.932000     26.444000     16.022000
C          29.299000     27.946000      9.333000
C          29.157000     25.595000     10.279000
C          24.783000     24.733000      9.460000
C          25.566000     30.614000     11.660000
C          23.746000     25.282000     12.800000
C          29.713000     26.943000     10.317000
C          23.414000     28.847000     12.322000
C          26.432000     25.890000      8.063000
C          27.619000     25.457000     14.012000
C          25.431000     30.107000     12.985000
C          28.537000     27.712000     14.354000
C          26.634000     26.283000     14.586000
C          24.878000     28.377000     14.231000
C          22.894000     27.580000     12.296000
C          29.354000     26.169000     12.449000
C          23.153000     25.919000     10.479000
C          28.950000     28.888000     13.500000
C          27.873000     29.825000     13.125000
C          23.667000     25.032000     11.421000
C          25.057000     29.026000      8.625000
C          24.281000     26.910000      8.438000
C          25.539000     26.942000      7.862000
C          27.787000     26.164000      8.341000
C          27.928000     30.199000     11.768000
C          28.769000     26.287000     13.748000
C          28.228000     25.229000      9.295000
C          24.338000     29.286000     13.310000
C          29.000000     25.138000     11.609000
C          25.290000     25.955000     14.310000
C          26.698000     30.361000      9.677000
C          26.051000     24.771000      8.850000
C          27.123000     27.616000     14.698000
C          27.357000     28.526000      8.252000
C          24.367000     27.056000     14.210000
C          27.191000     24.479000     13.113000
C          23.220000     28.326000     10.090000
C          23.607000     29.313000     10.991000
C          25.874000     24.085000     12.795000
C          26.817000     30.682000     11.031000
C          26.582000     29.705000     13.681000
C          25.343000     30.112000      9.450000
C          29.455000     28.634000     12.084000
C          26.967000     23.891000     10.905000
C          26.243000     28.643000     14.458000
C          24.882000     24.884000     13.433000
C          27.724000     29.559000      9.043000
C          24.654000     24.276000     10.788000
C          28.284000     27.506000      8.404000
C          23.930000     25.790000      9.300000
C          27.876000     24.319000     11.893000
C          25.764000     23.754000     11.489000
C          29.754000     27.314000     11.711000
C          28.903000     29.502000     11.129000
C          23.976000     28.171000      8.869000
C          27.160000     24.391000      9.591000
C          23.378000     26.635000     13.270000
C          24.614000     30.217000     10.703000
C          22.825000     27.205000     10.879000
C          28.896000     29.177000      9.785000
C          26.042000     28.258000      7.961000
$end

--------------------------------------------------------------
 ----------------------------------------------------------------
             Standard Nuclear Orientation (Angstroms)
    I     Atom           X                Y                Z
 ----------------------------------------------------------------
    1      O     -14.6944580648    -0.1528855804    -1.2526040014
    2      C     -15.5797411436    -0.1118084066    -2.4614325816
    3      H     -15.1495447721    -0.6686943769    -3.3031986406
    4      H     -15.6100066958     0.9327378978    -2.7937141104
    5      H     -16.5591573890    -0.5447734005    -2.2241982413
    6      O     -13.0536851377     0.7275994321    -2.5189263714
    7      C     -13.4690536544     0.2454057728    -1.4823843942
    8      C     -12.5803207072     0.1026644363    -0.3354952717
    9      H     -12.4942122540    -0.9872853227    -0.2456350636
   10      H     -13.2754169335     0.3686554841     0.4702956433
   11      C     -11.3116215479     0.9637133614    -0.3072252927
   12      H     -10.6431929583     0.6520012736    -1.1193741676
   13      H     -11.5675826929     2.0236640133    -0.4277305114
   14      C     -10.5692519782     0.7941289921     1.0107024609
   15      H     -11.1012697374     1.1496323592     1.9021319084
   16      H     -10.3749642227    -0.2714839998     1.1841447265
   17      C      -9.2408087406     1.6319572019     1.0436031520
   18      C      -9.4333967108     3.0819943044     1.3873709152
   19      C      -9.9353297170     3.9941123163     0.4308349829
   20      H     -10.1968482448     3.7439171541    -0.5928795478
   21      C     -10.2782560147     5.2626338010     0.9218592156
   22      H     -10.7406254080     5.9328712571     0.2034440873
   23      C      -9.8198214006     5.7751209000     2.1582918575
   24      H      -9.8980353209     6.8385809948     2.3621746903
   25      C      -9.1915540531     4.8991424766     3.0078158076
   26      H      -8.8438633422     5.2629997772     3.9708568422
   27      C      -9.0540392756     3.5752729918     2.6739816072
   28      H      -8.4325657555     2.9737251699     3.3298778504
   29      C      -4.6208850028     2.9881181303    -1.5503949577
   30      C      -3.9579809033     3.0327255273     0.7568573768
   31      C      -1.4342725822    -0.7468617355     0.6704025752
   32      C      -6.8012179212    -1.4973304867    -2.6347519418
   33      C      -3.8858462414    -2.8162139086     2.1134140712
   34      C      -4.9105716628     3.2250319323    -0.2211457375
   35      C      -5.5349532389    -3.4385184387    -1.0197927816
   36      C      -1.6309546364     1.0820749604    -0.9261539479
   37      C      -6.1338577632     0.4053852832     2.8556787442
   38      C      -7.4027514928    -1.9664755034    -1.4368398768
   39      C      -7.9614689295     0.8973317375     1.4948282341
   40      C      -6.7458002600    -0.7892263331     2.6760528362
   41      C      -7.1194723987    -2.6916002259     0.6753270417
   42      C      -4.5885234669    -3.7516405616    -0.0114152616
   43      C      -5.9666718689     2.5480687232     1.6604576129
   44      C      -2.3902053980    -2.8009801216     0.1891000637
   45      C      -8.1532901362     1.2611988115     0.0854197138
   46      C      -8.2724556525     0.2561376025    -0.9977411910
   47      C      -2.6694049467    -2.4805669187     1.5300911119
   48      C      -3.3922092289    -0.8402902318    -3.2059680474
   49      C      -1.8354638715    -1.2898886638    -1.6626446392
   50      C      -1.8845802984     0.0947673207    -1.9452970429
   51      C      -2.4543017507     2.2279064274    -0.9446952150
   52      C      -7.4253719365     0.7563349326    -2.0786324016
   53      C      -6.8041255824     1.4974951399     2.2309595181
   54      C      -2.7167775067     2.4996151595     0.4396800385
   55      C      -6.8006750431    -2.9381265802    -0.7062687757
   56      C      -4.5986127358     2.5325035255     1.8686616780
   57      C      -5.9745978069    -2.0189689440     2.7323545884
   58      C      -5.4956306435     0.2228349439    -3.4649993458
   59      C      -1.4755707545     0.6499158955     0.3720676787
   60      C      -7.7128446730    -0.5843289988     1.7466147341
   61      C      -3.5385238723     1.5350147063    -2.9872731092
   62      C      -6.1401545984    -2.9445139752     1.6576214382
   63      C      -4.7990658595     0.4780008725     3.2394801904
   64      C      -3.5891654192    -2.9274595990    -1.8827589588
   65      C      -4.9619843896    -2.9448143684    -2.1736831527
   66      C      -4.0157120290    -0.6668315563     3.2495044641
   67      C      -6.7674412824    -0.1457668706    -2.9635739765
   68      C      -8.1074946600    -1.0555345039    -0.6015617414
   69      C      -4.7872872058    -0.9129860684    -3.4852774702
   70      C      -7.2667642414     2.3585629265    -0.4484274898
   71      C      -2.7565388615     1.0770776639     2.4214847989
   72      C      -7.8212937973    -1.4413914818     0.7017622624
   73      C      -4.5664946221    -1.9648298841     2.9637058003
   74      C      -4.9439012072     1.4613156025    -3.1441328825
   75      C      -2.0683688476    -1.2312816447     1.8689050900
   76      C      -3.3768785759     2.5283802143    -2.0080914276
   77      C      -1.6698653013    -1.7064213851    -0.3334153115
   78      C      -4.0683766726     1.5657859246     2.7686660098
   79      C      -2.7410997184    -0.3076116456     2.7547221752
   80      C      -6.2236805458     2.9248526969     0.3317073063
   81      C      -6.8842091919     1.9734103807    -1.7425948478
   82      C      -2.8062734588    -1.8791882204    -2.4428342173
   83      C      -2.0917232715     1.4990392610     1.2843930516
   84      C      -4.8950414328    -3.4188590059     1.2929325344
   85      C      -5.5953220084    -1.9793152862    -2.9921854330
   86      C      -3.3829126451    -3.4107855347    -0.5509024226
   87      C      -5.5967401498     2.3722164628    -2.2859429630
   88      C      -2.7762488514     0.3601372384    -2.9794802948
   89      O      13.3530726720     4.6087220198    -2.2802939476
   90      C      14.0762596677     5.8530590661    -2.2480622155
   91      H      15.1245870363     5.7778604268    -1.9335357571
   92      H      13.5186171295     6.5688901434    -1.6317533089
   93      H      14.2197478235     6.2330401250    -3.2667253316
   94      O      11.5778497578     5.3339266559    -3.5481708504
   95      C      12.1518882902     4.4730162762    -2.9368950685
   96      C      11.4585829123     3.1116332511    -2.7706996661
   97      H      12.2283586763     2.3436984547    -2.6269936407
   98      H      10.9180839828     2.9031530496    -3.7015390254
   99      C      10.5476600121     3.1529224345    -1.5147344305
  100      H      11.2131314884     3.4222816253    -0.6848980969
  101      H       9.8467352040     3.9746914098    -1.7053811316
  102      C       9.8381629529     1.8098658121    -1.2559162856
  103      H       9.3018309252     1.4907178671    -2.1575445600
  104      H      10.6464914972     1.0683497696    -1.2495191549
  105      C       8.8606888502     1.8631666463     0.0125652475
  106      C       9.2372398919     2.6967952283     1.2406176488
  107      C      10.1014926489     2.2117341777     2.1943696863
  108      H      10.4954189636     1.2159701645     2.0116510812
  109      C      10.5102637301     2.9520332441     3.2794344288
  110      H      11.2420650520     2.4902437699     3.9359474194
  111      C      10.1623442720     4.2937806704     3.3909642217
  112      H      10.6428557020     4.7855485810     4.2317615145
  113      C       9.3355912866     4.8550596823     2.3733875062
  114      H       9.0671824760     5.8994924444     2.4978419795
  115      C       8.8371275521     4.0434227645     1.3250533901
  116      H       8.0788125535     4.4357880591     0.6536303948
  117      C       6.4241660375    -1.8133720478     3.4599726521
  118      C       4.7437500162     0.0770421975     3.2482724484
  119      C       1.5868314437    -2.0171596121     0.7595247899
  120      C       7.4001253640    -3.3575817485    -1.3495347856
  121      C       2.5248431818    -0.4568111379    -2.2765609497
  122      C       6.1243040696    -0.3844492685     3.3419748095
  123      C       5.0881583798    -2.9042670606    -2.9746352311
  124      C       2.9279252464    -2.8783010086     2.6221471100
  125      C       4.9939776160     2.0616433891    -0.2615026525
  126      C       7.3270492849    -2.2136390424    -2.1962661313
  127      C       7.3822820759     1.4788189313    -0.2936034047
  128      C       5.3377557495     1.5590657008    -1.5308368331
  129      C       6.0315532391    -0.6426910748    -3.0359312304
  130      C       3.7948352423    -2.4625294332    -3.0670913325
  131      C       5.9687695846     1.3685308931     1.8667627646
  132      C       2.0308428605    -2.7009588847    -1.3469246913
  133      C       8.2795316053     0.4229597271     0.3088628789
  134      C       8.3767818538    -0.8463002789    -0.4381608331
  135      C       1.8623351578    -1.3196082390    -1.3894046612
  136      C       4.9350886683    -4.8383443630     0.5799693394
  137      C       2.7780498605    -4.1588243827     0.5860667440
  138      C       3.2641043975    -4.0052083590     1.8727357396
  139      C       3.9189237376    -2.2163983646     3.3759321458
  140      C       8.2923139112    -1.9759377277     0.3991768533
  141      C       6.1646429328     1.9450432127     0.5733884272
  142      C       3.6784346845    -0.8335526197     3.2825262506
  143      C       6.2110790232    -2.0333261646    -3.0307795471
  144      C       4.7014283245     1.1869295021     2.3714845347
  145      C       4.3093496789     0.9332953431    -2.2662879963
  146      C       7.1631201600    -4.0885291472     0.8154747833
  147      C       2.0724083761    -1.8860580606     2.0742093246
  148      C       6.6949133351     1.1270040300    -1.5308174078
  149      C       5.5805543049    -3.7745747729     2.6124302544
  150      C       4.7007268666    -0.1636358810    -3.1134572749
  151      C       3.7139922869     1.7758542639     0.2158139438
  152      C       3.8885077883    -4.2669069413    -1.5622075289
  153      C       5.1556384461    -4.0033795929    -2.0727682331
  154      C       2.6331564700     1.1693514296    -0.4585726286
  155      C       7.8955202996    -3.2640316661    -0.0414452475
  156      C       7.7969226862    -0.9805360090    -1.7172077887
  157      C       6.2078602546    -4.7285248530     0.0233643050
  158      C       7.8977547228    -0.1970359556     1.6484332449
  159      C       2.4524281561     0.4531765516     1.6051172272
  160      C       7.0055881470    -0.0074870264    -2.2401411731
  161      C       2.9711362182     0.7231913506    -1.7686183811
  162      C       6.8411291999    -3.6224072168     2.1484744711
  163      C       1.5580552613    -0.8958947327    -0.0954670239
  164      C       5.2724362764    -2.6840272064     3.4115562054
  165      C       1.9597797941    -3.0998958816     0.0118285288
  166      C       3.5588880947     1.3233260375     1.5403462740
  167      C       1.9118838069     0.3880290488     0.3760518874
  168      C       6.8698274837     0.4049155699     2.3913665880
  169      C       8.0277504989    -1.5943612918     1.6755626196
  170      C       3.7730286703    -4.6904891336    -0.1861098943
  171      C       2.5525346134    -0.6527572313     2.4887088551
  172      C       3.5741184518    -1.0405747385    -3.1397958346
  173      C       6.3064036662    -4.2427321712    -1.3429334906
  174      C       3.0249092804    -3.2785529559    -2.1212612084
  175      C       7.3517971621    -2.3585602262     2.6088884336
  176      C       4.6106534884    -4.4306181228     1.8950534154
 ----------------------------------------------------------------
 Molecular Point Group                 C1    NOp =  1
 Largest Abelian Subgroup              C1    NOp =  1
 Nuclear Repulsion Energy = 33248.0573604003 hartrees
 There are      462 alpha and      462 beta electrons
 Requested basis set is 6-31G(d,p)
 There are 676 shells and 2360 basis functions

 Total QAlloc Memory Limit  20000 MB
 Mega-Array Size      4888 MB
 MEM_STATIC part      5000 MB
 A cutoff of  1.0D-08 yielded  36418 shell pairs
 There are    517267 function pairs
 
 -------------------------------------------------------
 OpenMP Integral Computing Module                       
 Release: version 1.0, May 2013, Q-Chem Inc. Pittsburgh 
 -------------------------------------------------------
 Integral Job Info:
 Integral job number is                      11
 Integral operator is                         1
 short-range coefficients                     0
 long-range coefficients              100000000
 Omega coefficients                           0
 if combine SR and LR in K                    0
 Integral screening is                        0
 Integral computing path is                   2
 max size of driver memory is            800000
 size of driver memory is                593474
 size of scratch memory is              2260544
 max col of scratch BK array               1296
 max len of scratch array in speh3          155
 max len of scratch index in speh4           18
 max int batch size is                      520
 min int batch size is                       52
 fixed nKL is                                52
 max L of basis functions is                  2
 order of int derivative is                   0
 number of shells is                        676
 number of basis is                        2360
 number of cartesian basis is              2360
 number of contracted shell pairs         36418
 number of primitive shell pairs         111456
 maxK2 (contraction) of shell pair           36
 max number of K2 of shell pair               1
 max number of CS2 of shell pair           7075
 max number of PS2 of shell pair          33978
 mem total for path MDJ                 1477832
 -------------------------------------------------------
 Smallest overlap matrix eigenvalue = 2.56E-04

 Scale SEOQF with 1.000000e-02/1.000000e-02/1.000000e-01

 Standard Electronic Orientation quadrupole field applied
 Nucleus-field energy     =    -0.0000002042 hartrees
 Guess from superposition of atomic densities
 Warning:  Energy on first SCF cycle will be non-variational
 A restricted hybrid HF-DFT SCF calculation will be
 performed using Pulay DIIS extrapolation
 Exchange:     0.2000 Hartree-Fock + 0.0800 Slater + 0.7200 B88
 Correlation:  0.1900 VWN1RPA + 0.8100 LYP
 Using SG-1 standard quadrature grid
 SCF converges when DIIS error is below 1.0E-05
 using 16 threads for integral computing 
 -------------------------------------------------------
 OpenMP BLAS3 based DFT computing Module                
 Release: version 1.0, May 2013, Q-Chem Inc. Pittsburgh 
 -------------------------------------------------------
 ---------------------------------------
  Cycle       Energy         DIIS Error
 ---------------------------------------
    1   -5858.2701357633      1.83E-02
    2   -5803.0813966462      1.30E-03
    3   -5802.3326235283      1.77E-03
    4   -5803.9648018306      6.14E-04
    5   -5804.1661480500      2.93E-04
    6   -5804.2218168636      1.31E-04
    7   -5804.2331015667      5.03E-05
    8   -5804.2340699299      3.62E-05
    9   -5804.2351212896      8.48E-06 Convergence criterion met
 ---------------------------------------
 SCF time:  CPU 8043.31 s  wall 829.52 s
 SCF   energy in the final basis set = -5804.2351212896
 Total energy in the final basis set = -5804.2351212896
 
 --------------------------------------------------------------
 
                    Orbital Energies (a.u.)
 --------------------------------------------------------------
 
 Alpha MOs
 -- Occupied --
-19.201 -19.193 -19.134 -19.121 -10.317 -10.304 -10.256 -10.253
-10.249 -10.245 -10.237 -10.236 -10.231 -10.230 -10.227 -10.227
-10.227 -10.226 -10.225 -10.223 -10.223 -10.222 -10.222 -10.221
-10.221 -10.220 -10.220 -10.220 -10.220 -10.220 -10.219 -10.218
-10.218 -10.218 -10.218 -10.218 -10.217 -10.217 -10.217 -10.217
-10.217 -10.216 -10.216 -10.216 -10.216 -10.216 -10.216 -10.216
-10.216 -10.216 -10.215 -10.215 -10.215 -10.215 -10.215 -10.215
-10.215 -10.215 -10.215 -10.215 -10.214 -10.214 -10.214 -10.214
-10.214 -10.214 -10.214 -10.214 -10.214 -10.214 -10.213 -10.213
-10.213 -10.213 -10.213 -10.213 -10.213 -10.213 -10.212 -10.212
-10.212 -10.212 -10.212 -10.212 -10.212 -10.212 -10.212 -10.211
-10.211 -10.211 -10.211 -10.210 -10.210 -10.210 -10.210 -10.210
-10.210 -10.210 -10.210 -10.210 -10.210 -10.210 -10.209 -10.209
-10.209 -10.209 -10.209 -10.209 -10.209 -10.208 -10.208 -10.208
-10.208 -10.208 -10.208 -10.208 -10.208 -10.208 -10.207 -10.207
-10.207 -10.207 -10.207 -10.206 -10.206 -10.206 -10.206 -10.206
-10.206 -10.206 -10.205 -10.204 -10.204 -10.203 -10.202 -10.202
-10.201 -10.200 -10.200 -10.199 -10.196 -10.196 -10.195 -10.195
-10.195 -10.193 -10.193 -10.191  -1.108  -1.091  -1.017  -1.006
 -0.982  -0.979  -0.965  -0.964  -0.962  -0.959  -0.959  -0.954
 -0.934  -0.928  -0.927  -0.925  -0.923  -0.921  -0.920  -0.918
 -0.918  -0.916  -0.894  -0.890  -0.889  -0.887  -0.886  -0.884
 -0.872  -0.872  -0.856  -0.854  -0.840  -0.837  -0.836  -0.835
 -0.835  -0.831  -0.819  -0.817  -0.808  -0.802  -0.795  -0.794
 -0.794  -0.792  -0.791  -0.790  -0.790  -0.790  -0.783  -0.776
 -0.771  -0.769  -0.768  -0.766  -0.764  -0.762  -0.762  -0.761
 -0.753  -0.752  -0.746  -0.743  -0.733  -0.730  -0.714  -0.714
 -0.712  -0.712  -0.710  -0.710  -0.709  -0.708  -0.707  -0.706
 -0.704  -0.703  -0.703  -0.703  -0.702  -0.700  -0.672  -0.671
 -0.657  -0.656  -0.655  -0.651  -0.647  -0.644  -0.631  -0.630
 -0.627  -0.623  -0.622  -0.621  -0.621  -0.619  -0.616  -0.615
 -0.613  -0.612  -0.611  -0.610  -0.610  -0.609  -0.607  -0.605
 -0.604  -0.603  -0.602  -0.597  -0.569  -0.566  -0.565  -0.562
 -0.561  -0.559  -0.556  -0.555  -0.553  -0.552  -0.551  -0.549
 -0.537  -0.536  -0.531  -0.529  -0.528  -0.526  -0.523  -0.522
 -0.520  -0.519  -0.517  -0.515  -0.512  -0.512  -0.512  -0.510
 -0.507  -0.505  -0.500  -0.495  -0.495  -0.488  -0.487  -0.484
 -0.482  -0.481  -0.481  -0.479  -0.479  -0.478  -0.476  -0.474
 -0.472  -0.470  -0.469  -0.468  -0.467  -0.465  -0.465  -0.464
 -0.463  -0.462  -0.461  -0.461  -0.460  -0.458  -0.457  -0.457
 -0.454  -0.454  -0.453  -0.451  -0.450  -0.447  -0.443  -0.441
 -0.441  -0.438  -0.437  -0.436  -0.435  -0.434  -0.431  -0.431
 -0.429  -0.427  -0.427  -0.426  -0.425  -0.424  -0.423  -0.422
 -0.421  -0.421  -0.419  -0.419  -0.418  -0.418  -0.417  -0.417
 -0.416  -0.415  -0.414  -0.413  -0.412  -0.411  -0.410  -0.410
 -0.409  -0.408  -0.406  -0.405  -0.401  -0.401  -0.397  -0.395
 -0.394  -0.392  -0.387  -0.387  -0.385  -0.385  -0.383  -0.383
 -0.376  -0.375  -0.374  -0.373  -0.369  -0.368  -0.366  -0.365
 -0.364  -0.363  -0.362  -0.360  -0.359  -0.359  -0.358  -0.357
 -0.356  -0.355  -0.354  -0.353  -0.351  -0.351  -0.350  -0.349
 -0.348  -0.347  -0.346  -0.345  -0.345  -0.345  -0.344  -0.343
 -0.341  -0.340  -0.339  -0.339  -0.336  -0.334  -0.333  -0.331
 -0.331  -0.330  -0.328  -0.327  -0.325  -0.324  -0.323  -0.323
 -0.309  -0.304  -0.301  -0.301  -0.288  -0.283  -0.270  -0.268
 -0.267  -0.266  -0.265  -0.265  -0.264  -0.262  -0.261  -0.260
 -0.259  -0.259  -0.257  -0.257  -0.257  -0.256  -0.253  -0.252
 -0.252  -0.247  -0.245  -0.240  -0.220  -0.217  -0.210  -0.208
 -0.207  -0.205  -0.204  -0.202  -0.199  -0.196
 -- Virtual --
 -0.122  -0.119  -0.118  -0.117  -0.108  -0.106  -0.076  -0.076
 -0.074  -0.068  -0.060  -0.060  -0.054  -0.053  -0.022  -0.020
 -0.019  -0.018  -0.017  -0.016  -0.015  -0.014  -0.014  -0.012
 -0.010  -0.010  -0.007  -0.006  -0.004  -0.002   0.005   0.008
  0.011   0.026   0.035   0.037   0.041   0.042   0.047   0.050
  0.053   0.055   0.056   0.057   0.064   0.065   0.070   0.071
  0.072   0.073   0.076   0.084   0.084   0.087   0.087   0.089
  0.094   0.096   0.098   0.099   0.101   0.103   0.105   0.105
  0.107   0.110   0.111   0.113   0.116   0.117   0.118   0.120
  0.125   0.125   0.126   0.126   0.130   0.133   0.133   0.136
  0.137   0.142   0.144   0.146   0.148   0.151   0.155   0.157
  0.157   0.159   0.160   0.162   0.163   0.166   0.168   0.170
  0.171   0.173   0.174   0.175   0.178   0.179   0.180   0.183
  0.184   0.186   0.187   0.188   0.190   0.190   0.192   0.193
  0.194   0.195   0.199   0.200   0.202   0.202   0.203   0.204
  0.205   0.209   0.212   0.212   0.213   0.217   0.219   0.219
  0.221   0.222   0.224   0.225   0.226   0.228   0.229   0.230
  0.231   0.234   0.235   0.235   0.236   0.237   0.240   0.241
  0.242   0.244   0.245   0.249   0.249   0.250   0.256   0.257
  0.264   0.264   0.268   0.275   0.277   0.279   0.279   0.282
  0.285   0.286   0.287   0.289   0.291   0.296   0.298   0.306
  0.308   0.311   0.312   0.312   0.315   0.317   0.320   0.320
  0.322   0.324   0.325   0.326   0.327   0.331   0.333   0.337
  0.337   0.338   0.341   0.343   0.348   0.350   0.351   0.353
  0.354   0.356   0.357   0.362   0.371   0.384   0.385   0.389
  0.395   0.398   0.401   0.403   0.403   0.406   0.407   0.409
  0.411   0.412   0.414   0.415   0.419   0.420   0.421   0.422
  0.428   0.432   0.438   0.440   0.442   0.442   0.445   0.447
  0.448   0.449   0.450   0.454   0.455   0.457   0.462   0.463
  0.464   0.466   0.469   0.470   0.472   0.474   0.476   0.477
  0.477   0.480   0.481   0.483   0.484   0.484   0.485   0.486
  0.488   0.489   0.490   0.491   0.492   0.493   0.495   0.496
  0.496   0.499   0.500   0.500   0.502   0.502   0.503   0.505
  0.506   0.507   0.508   0.509   0.509   0.511   0.513   0.513
  0.514   0.514   0.515   0.516   0.517   0.517   0.519   0.520
  0.520   0.522   0.523   0.524   0.525   0.525   0.527   0.527
  0.528   0.528   0.529   0.530   0.531   0.532   0.533   0.534
  0.534   0.535   0.535   0.536   0.537   0.538   0.538   0.539
  0.540   0.540   0.541   0.542   0.542   0.543   0.544   0.546
  0.547   0.548   0.548   0.549   0.550   0.550   0.551   0.551
  0.553   0.554   0.554   0.555   0.555   0.557   0.558   0.559
  0.559   0.560   0.561   0.561   0.562   0.562   0.564   0.565
  0.565   0.566   0.567   0.568   0.569   0.570   0.571   0.572
  0.574   0.575   0.576   0.576   0.577   0.578   0.579   0.580
  0.581   0.581   0.583   0.583   0.584   0.586   0.587   0.587
  0.588   0.589   0.590   0.590   0.591   0.592   0.592   0.593
  0.594   0.595   0.595   0.596   0.597   0.598   0.599   0.599
  0.600   0.601   0.602   0.604   0.605   0.606   0.607   0.608
  0.609   0.610   0.611   0.612   0.612   0.613   0.613   0.615
  0.617   0.618   0.619   0.621   0.621   0.623   0.625   0.626
  0.627   0.627   0.628   0.630   0.631   0.632   0.632   0.633
  0.634   0.635   0.636   0.637   0.637   0.639   0.639   0.640
  0.640   0.644   0.645   0.646   0.648   0.648   0.649   0.649
  0.651   0.652   0.653   0.655   0.655   0.656   0.657   0.659
  0.659   0.660   0.661   0.661   0.662   0.663   0.664   0.664
  0.665   0.666   0.667   0.668   0.669   0.669   0.670   0.672
  0.673   0.673   0.674   0.675   0.676   0.677   0.678   0.680
  0.681   0.682   0.683   0.685   0.685   0.687   0.689   0.689
  0.690   0.691   0.692   0.693   0.693   0.694   0.695   0.696
  0.697   0.698   0.698   0.701   0.702   0.703   0.704   0.706
  0.707   0.711   0.712   0.712   0.713   0.715   0.716   0.717
  0.718   0.719   0.722   0.723   0.724   0.724   0.724   0.726
  0.727   0.729   0.730   0.731   0.732   0.733   0.733   0.735
  0.736   0.738   0.740   0.741   0.741   0.743   0.745   0.746
  0.748   0.749   0.751   0.752   0.754   0.754   0.755   0.757
  0.759   0.760   0.762   0.763   0.765   0.766   0.767   0.768
  0.770   0.771   0.774   0.774   0.776   0.776   0.778   0.779
  0.780   0.781   0.782   0.783   0.783   0.784   0.786   0.788
  0.789   0.789   0.791   0.792   0.794   0.795   0.796   0.797
  0.799   0.799   0.801   0.802   0.803   0.804   0.805   0.806
  0.806   0.808   0.809   0.809   0.810   0.811   0.812   0.813
  0.814   0.814   0.815   0.816   0.816   0.817   0.818   0.818
  0.820   0.820   0.820   0.821   0.822   0.823   0.824   0.824
  0.826   0.827   0.828   0.829   0.830   0.831   0.831   0.833
  0.834   0.837   0.838   0.839   0.843   0.844   0.847   0.849
  0.852   0.854   0.857   0.858   0.861   0.864   0.867   0.869
  0.871   0.873   0.875   0.876   0.878   0.888   0.888   0.890
  0.891   0.894   0.898   0.899   0.900   0.903   0.904   0.906
  0.908   0.910   0.912   0.918   0.918   0.920   0.921   0.923
  0.925   0.928   0.931   0.933   0.935   0.936   0.937   0.939
  0.940   0.942   0.943   0.945   0.946   0.947   0.948   0.950
  0.953   0.954   0.960   0.961   0.963   0.964   0.965   0.970
  0.973   0.974   0.977   0.979   0.983   0.985   0.987   0.988
  0.990   0.993   0.995   0.999   1.000   1.000   1.001   1.003
  1.004   1.007   1.009   1.011   1.013   1.016   1.018   1.019
  1.020   1.021   1.024   1.026   1.027   1.028   1.031   1.032
  1.034   1.036   1.037   1.037   1.040   1.041   1.042   1.046
  1.048   1.049   1.052   1.053   1.056   1.057   1.058   1.060
  1.062   1.062   1.065   1.067   1.067   1.070   1.070   1.072
  1.074   1.076   1.076   1.078   1.081   1.083   1.083   1.084
  1.085   1.086   1.088   1.089   1.090   1.093   1.095   1.097
  1.099   1.100   1.101   1.102   1.105   1.106   1.109   1.112
  1.115   1.117   1.118   1.120   1.121   1.125   1.127   1.130
  1.132   1.135   1.137   1.139   1.142   1.143   1.145   1.146
  1.150   1.150   1.152   1.153   1.155   1.159   1.160   1.162
  1.164   1.166   1.168   1.170   1.170   1.171   1.172   1.173
  1.174   1.175   1.177   1.179   1.181   1.183   1.187   1.187
  1.190   1.192   1.194   1.195   1.197   1.198   1.199   1.202
  1.203   1.208   1.210   1.211   1.214   1.215   1.219   1.220
  1.222   1.224   1.227   1.230   1.237   1.238   1.240   1.246
  1.247   1.250   1.252   1.253   1.255   1.258   1.261   1.264
  1.266   1.268   1.269   1.270   1.273   1.273   1.275   1.275
  1.279   1.281   1.283   1.283   1.286   1.288   1.289   1.290
  1.294   1.298   1.299   1.302   1.303   1.307   1.308   1.309
  1.309   1.312   1.315   1.318   1.320   1.321   1.322   1.327
  1.331   1.333   1.336   1.339   1.342   1.343   1.346   1.347
  1.351   1.354   1.355   1.356   1.357   1.359   1.363   1.364
  1.366   1.370   1.373   1.374   1.375   1.379   1.382   1.384
  1.386   1.390   1.391   1.394   1.394   1.396   1.399   1.400
  1.405   1.410   1.411   1.414   1.416   1.420   1.423   1.424
  1.425   1.427   1.435   1.436   1.437   1.443   1.444   1.450
  1.453   1.456   1.457   1.460   1.461   1.462   1.463   1.466
  1.467   1.467   1.468   1.471   1.473   1.474   1.476   1.478
  1.482   1.483   1.484   1.486   1.489   1.491   1.493   1.494
  1.498   1.499   1.504   1.506   1.507   1.509   1.511   1.512
  1.514   1.517   1.523   1.528   1.529   1.531   1.533   1.536
  1.537   1.540   1.544   1.546   1.550   1.552   1.553   1.556
  1.559   1.560   1.563   1.564   1.565   1.569   1.571   1.574
  1.575   1.577   1.578   1.580   1.585   1.586   1.589   1.590
  1.597   1.599   1.602   1.607   1.611   1.613   1.620   1.623
  1.625   1.629   1.632   1.632   1.640   1.641   1.646   1.648
  1.652   1.656   1.658   1.660   1.661   1.664   1.665   1.671
  1.678   1.683   1.684   1.685   1.691   1.693   1.695   1.698
  1.701   1.704   1.706   1.708   1.709   1.711   1.713   1.716
  1.719   1.721   1.722   1.724   1.724   1.727   1.730   1.730
  1.733   1.734   1.735   1.737   1.738   1.740   1.742   1.744
  1.747   1.751   1.752   1.754   1.756   1.756   1.757   1.760
  1.761   1.762   1.763   1.764   1.765   1.766   1.767   1.770
  1.771   1.772   1.772   1.774   1.775   1.776   1.777   1.779
  1.781   1.782   1.783   1.783   1.785   1.787   1.787   1.788
  1.790   1.792   1.792   1.794   1.794   1.795   1.797   1.797
  1.798   1.800   1.801   1.803   1.804   1.807   1.808   1.810
  1.811   1.813   1.815   1.816   1.818   1.822   1.822   1.825
  1.827   1.828   1.829   1.832   1.832   1.836   1.837   1.838
  1.840   1.842   1.842   1.847   1.847   1.857   1.858   1.859
  1.860   1.860   1.862   1.865   1.865   1.866   1.868   1.870
  1.872   1.874   1.875   1.877   1.880   1.882   1.885   1.886
  1.887   1.888   1.888   1.890   1.891   1.897   1.901   1.905
  1.907   1.908   1.912   1.914   1.915   1.916   1.918   1.921
  1.922   1.922   1.926   1.926   1.930   1.931   1.933   1.934
  1.935   1.937   1.938   1.940   1.943   1.945   1.946   1.948
  1.949   1.951   1.952   1.956   1.959   1.960   1.963   1.967
  1.970   1.972   1.976   1.977   1.978   1.980   1.984   1.985
  1.986   1.986   1.987   1.990   1.991   1.992   1.993   1.994
  1.997   1.997   1.998   1.999   2.001   2.004   2.004   2.006
  2.008   2.009   2.011   2.012   2.012   2.013   2.014   2.016
  2.017   2.017   2.018   2.020   2.022   2.024   2.027   2.028
  2.029   2.031   2.032   2.034   2.034   2.035   2.036   2.037
  2.038   2.039   2.041   2.041   2.043   2.044   2.044   2.045
  2.046   2.048   2.049   2.051   2.053   2.055   2.057   2.058
  2.059   2.059   2.060   2.062   2.063   2.064   2.064   2.065
  2.066   2.068   2.071   2.071   2.072   2.074   2.076   2.077
  2.078   2.079   2.082   2.082   2.083   2.086   2.087   2.089
  2.092   2.092   2.096   2.098   2.100   2.102   2.104   2.107
  2.108   2.109   2.111   2.113   2.115   2.116   2.117   2.122
  2.125   2.126   2.130   2.131   2.132   2.137   2.140   2.144
  2.149   2.151   2.151   2.157   2.158   2.164   2.166   2.172
  2.173   2.175   2.177   2.186   2.189   2.194   2.198   2.202
  2.205   2.207   2.210   2.218   2.221   2.222   2.224   2.227
  2.228   2.229   2.232   2.236   2.237   2.239   2.240   2.242
  2.245   2.246   2.253   2.255   2.259   2.261   2.263   2.266
  2.268   2.269   2.270   2.271   2.271   2.275   2.276   2.279
  2.282   2.285   2.287   2.292   2.293   2.293   2.294   2.301
  2.302   2.303   2.306   2.308   2.311   2.314   2.315   2.318
  2.320   2.320   2.325   2.327   2.328   2.330   2.335   2.337
  2.339   2.342   2.343   2.347   2.349   2.351   2.353   2.355
  2.357   2.359   2.360   2.361   2.363   2.365   2.366   2.371
  2.372   2.374   2.374   2.375   2.376   2.378   2.382   2.382
  2.383   2.385   2.388   2.388   2.391   2.392   2.394   2.396
  2.397   2.399   2.401   2.401   2.403   2.406   2.407   2.409
  2.411   2.411   2.412   2.413   2.415   2.419   2.420   2.422
  2.424   2.425   2.426   2.427   2.435   2.437   2.439   2.442
  2.446   2.447   2.449   2.451   2.452   2.454   2.455   2.463
  2.464   2.466   2.468   2.469   2.470   2.472   2.475   2.478
  2.478   2.480   2.481   2.482   2.485   2.486   2.488   2.491
  2.492   2.493   2.496   2.496   2.498   2.501   2.503   2.504
  2.506   2.507   2.509   2.512   2.516   2.517   2.519   2.522
  2.526   2.527   2.528   2.531   2.534   2.534   2.538   2.541
  2.542   2.546   2.548   2.553   2.555   2.557   2.560   2.564
  2.571   2.571   2.575   2.579   2.584   2.585   2.589   2.590
  2.593   2.595   2.597   2.599   2.603   2.606   2.607   2.608
  2.610   2.612   2.613   2.614   2.615   2.617   2.618   2.620
  2.624   2.624   2.626   2.627   2.628   2.631   2.632   2.633
  2.634   2.637   2.640   2.643   2.643   2.646   2.647   2.651
  2.652   2.655   2.656   2.658   2.660   2.661   2.661   2.662
  2.663   2.664   2.665   2.667   2.670   2.671   2.672   2.673
  2.676   2.677   2.678   2.681   2.682   2.687   2.687   2.688
  2.692   2.696   2.697   2.698   2.700   2.704   2.707   2.708
  2.710   2.712   2.713   2.715   2.720   2.724   2.727   2.729
  2.730   2.732   2.738   2.738   2.739   2.741   2.746   2.748
  2.749   2.750   2.752   2.754   2.757   2.758   2.761   2.765
  2.765   2.766   2.767   2.768   2.771   2.775   2.776   2.781
  2.781   2.783   2.784   2.787   2.788   2.791   2.793   2.795
  2.797   2.805   2.806   2.808   2.809   2.813   2.816   2.822
  2.825   2.827   2.830   2.835   2.835   2.836   2.840   2.841
  2.844   2.844   2.849   2.850   2.853   2.856   2.858   2.861
  2.862   2.864   2.868   2.869   2.873   2.874   2.874   2.876
  2.878   2.880   2.881   2.885   2.887   2.889   2.891   2.895
  2.895   2.898   2.898   2.900   2.901   2.904   2.904   2.907
  2.907   2.908   2.909   2.911   2.912   2.916   2.916   2.918
  2.920   2.921   2.928   2.929   2.932   2.932   2.934   2.935
  2.939   2.942   2.945   2.946   2.950   2.951   2.951   2.953
  2.958   2.961   2.963   2.965   2.967   2.974   2.977   2.978
  2.980   2.986   2.988   2.992   2.994   2.997   2.999   3.001
  3.002   3.006   3.010   3.011   3.017   3.019   3.021   3.023
  3.025   3.031   3.036   3.037   3.038   3.040   3.041   3.047
  3.051   3.053   3.055   3.058   3.060   3.061   3.062   3.068
  3.070   3.073   3.075   3.077   3.085   3.097   3.100   3.101
  3.109   3.114   3.116   3.122   3.133   3.139   3.144   3.151
  3.154   3.165   3.170   3.174   3.176   3.181   3.181   3.183
  3.190   3.195   3.197   3.205   3.207   3.221   3.233   3.237
  3.240   3.247   3.255   3.258   3.263   3.267   3.274   3.277
  3.279   3.289   3.303   3.308   3.318   3.324   3.327   3.329
  3.337   3.339   3.345   3.346   3.354   3.362   3.366   3.385
  3.389   3.397   3.402   3.412   3.416   3.417   3.428   3.430
  3.435   3.441   3.463   3.468   3.469   3.479   3.491   3.495
  3.498   3.500   3.512   3.515   3.516   3.526   3.530   3.532
  3.544   3.549   3.559   3.560   3.569   3.575   3.592   3.601
  3.605   3.610   3.678   3.684   3.858   3.862   4.014   4.020
  4.059   4.074   4.077   4.079   4.086   4.089   4.092   4.096
  4.099   4.102   4.102   4.106   4.107   4.115   4.117   4.122
  4.127   4.128   4.138   4.140   4.145   4.147   4.149   4.151
  4.156   4.161   4.168   4.171   4.172   4.180   4.180   4.188
  4.191   4.197   4.201   4.210   4.214   4.227   4.233   4.244
  4.244   4.246   4.248   4.251   4.252   4.253   4.260   4.265
  4.267   4.269   4.273   4.275   4.277   4.290   4.291   4.296
  4.301   4.313   4.319   4.342   4.351   4.386   4.389   4.395
  4.397   4.401   4.403   4.405   4.406   4.412   4.414   4.417
  4.419   4.421   4.425   4.428   4.431   4.453   4.459   4.461
  4.467   4.481   4.487   4.514   4.530   4.538   4.542   4.551
  4.558   4.560   4.581   4.615   4.617   4.623   4.633   4.634
  4.640   4.650   4.657   4.683   4.684   4.691   4.697   4.699
  4.701   4.704   4.714   4.715   4.730   4.766   4.781   4.829
  4.831   4.855   4.858   4.863   4.875   4.876   4.882   4.887
  4.897   4.900   4.947   4.953   4.956   4.970   4.970   4.982
  4.986   4.988   5.004   5.011   5.154   5.171   5.175   5.181
  5.189   5.195   5.202   5.208   5.294   5.304   5.327   5.341
  5.352   5.354
 --------------------------------------------------------------
 
          Ground-State Mulliken Net Atomic Charges

     Atom                 Charge (a.u.)
  ----------------------------------------
      1 O                    -0.461019
      2 C                    -0.097973
      3 H                     0.140267
      4 H                     0.144069
      5 H                     0.127864
      6 O                    -0.500880
      7 C                     0.606032
      8 C                    -0.270708
      9 H                     0.133599
     10 H                     0.125425
     11 C                    -0.164624
     12 H                     0.128931
     13 H                     0.110983
     14 C                    -0.186390
     15 H                     0.111896
     16 H                     0.104724
     17 C                    -0.005276
     18 C                     0.062014
     19 C                    -0.093222
     20 H                     0.107199
     21 C                    -0.106166
     22 H                     0.083790
     23 C                    -0.074922
     24 H                     0.093964
     25 C                    -0.084358
     26 H                     0.088612
     27 C                    -0.098039
     28 H                     0.094026
     29 C                     0.008409
     30 C                     0.002039
     31 C                    -0.008253
     32 C                     0.008689
     33 C                     0.007788
     34 C                     0.003200
     35 C                    -0.007007
     36 C                    -0.011751
     37 C                     0.015778
     38 C                     0.011930
     39 C                    -0.101571
     40 C                     0.013162
     41 C                    -0.043256
     42 C                     0.002815
     43 C                    -0.019267
     44 C                     0.001731
     45 C                    -0.056510
     46 C                    -0.016002
     47 C                     0.005246
     48 C                     0.001584
     49 C                    -0.006457
     50 C                    -0.007498
     51 C                     0.006323
     52 C                     0.010957
     53 C                     0.003415
     54 C                    -0.028989
     55 C                    -0.006791
     56 C                     0.021713
     57 C                    -0.041739
     58 C                     0.009359
     59 C                     0.017124
     60 C                     0.023110
     61 C                    -0.012454
     62 C                     0.008712
     63 C                     0.009039
     64 C                    -0.008416
     65 C                     0.006079
     66 C                     0.002223
     67 C                    -0.039404
     68 C                     0.028334
     69 C                     0.000126
     70 C                     0.029782
     71 C                    -0.012127
     72 C                     0.024977
     73 C                    -0.004559
     74 C                     0.004703
     75 C                    -0.022431
     76 C                    -0.020984
     77 C                     0.013010
     78 C                    -0.015592
     79 C                    -0.012476
     80 C                     0.017407
     81 C                     0.011024
     82 C                    -0.015958
     83 C                     0.024699
     84 C                     0.014886
     85 C                    -0.000845
     86 C                     0.010791
     87 C                    -0.001997
     88 C                     0.023782
     89 O                    -0.474666
     90 C                    -0.083849
     91 H                     0.126101
     92 H                     0.128375
     93 H                     0.127604
     94 O                    -0.450893
     95 C                     0.574297
     96 C                    -0.236920
     97 H                     0.110093
     98 H                     0.130956
     99 C                    -0.196935
    100 H                     0.124722
    101 H                     0.120741
    102 C                    -0.182116
    103 H                     0.116448
    104 H                     0.111541
    105 C                     0.007014
    106 C                     0.090127
    107 C                    -0.092623
    108 H                     0.089220
    109 C                    -0.087113
    110 H                     0.091600
    111 C                    -0.080581
    112 H                     0.096576
    113 C                    -0.104668
    114 H                     0.095960
    115 C                    -0.106824
    116 H                     0.101182
    117 C                    -0.030879
    118 C                    -0.009925
    119 C                     0.016093
    120 C                    -0.016939
    121 C                    -0.017136
    122 C                    -0.033509
    123 C                     0.022871
    124 C                     0.001467
    125 C                    -0.013614
    126 C                    -0.011920
    127 C                    -0.081797
    128 C                     0.001795
    129 C                    -0.014998
    130 C                    -0.007526
    131 C                     0.029272
    132 C                    -0.021654
    133 C                    -0.078934
    134 C                     0.032374
    135 C                     0.036460
    136 C                     0.019342
    137 C                     0.008101
    138 C                    -0.014538
    139 C                    -0.009832
    140 C                     0.010785
    141 C                    -0.015828
    142 C                     0.017078
    143 C                    -0.002239
    144 C                     0.000259
    145 C                    -0.009179
    146 C                    -0.003138
    147 C                    -0.020513
    148 C                     0.063056
    149 C                     0.039132
    150 C                    -0.003446
    151 C                     0.021371
    152 C                     0.002468
    153 C                     0.019683
    154 C                    -0.017747
    155 C                    -0.008338
    156 C                    -0.000691
    157 C                    -0.027478
    158 C                    -0.008823
    159 C                     0.014242
    160 C                    -0.004211
    161 C                     0.020903
    162 C                    -0.014307
    163 C                    -0.009567
    164 C                    -0.009245
    165 C                     0.001868
    166 C                    -0.021996
    167 C                     0.011545
    168 C                     0.012262
    169 C                     0.048947
    170 C                    -0.009293
    171 C                     0.006875
    172 C                    -0.032377
    173 C                    -0.007848
    174 C                    -0.017779
    175 C                    -0.000533
    176 C                     0.002730
  ----------------------------------------
  Sum of atomic charges =     0.000000

 -----------------------------------------------------------------
                    Cartesian Multipole Moments
 -----------------------------------------------------------------
    Charge (ESU x 10^10)
                 0.0000
    Dipole Moment (Debye)
         X      -0.2867      Y       2.0418      Z       2.6246
       Tot       3.3376
    Quadrupole Moments (Debye-Ang)
        XX    -667.7140     XY      21.3627     YY    -800.0265
        XZ       9.2467     YZ      18.3763     ZZ    -817.4496
    Octopole Moments (Debye-Ang^2)
       XXX    -188.4794    XXY     410.4297    XYY     -22.7579
       YYY     277.3296    XXZ      70.4488    XYZ      52.7978
       YYZ      84.2139    XZZ     -28.6074    YZZ      33.7277
       ZZZ      10.7738
    Hexadecapole Moments (Debye-Ang^3)
      XXXX -192119.5835   XXXY    7913.4286   XXYY  -41297.9122
      XYYY    1138.9277   YYYY  -31827.7255   XXXZ    3311.6291
      XXYZ    1509.1854   XYYZ     501.8403   YYYZ     517.4332
      XXZZ  -42078.7025   XYZZ     122.2987   YYZZ   -9052.7121
      XZZZ     164.9317   YZZZ     282.2197   ZZZZ  -21033.0166
 -----------------------------------------------------------------
Archival summary:
1\1\mn251\SP\ProcedureUnspecified\6-31G**\428\afmv_a\MonOct1501:06:482018MonOct1501:06:482018\0\\#,ProcedureUnspecified,6-31G**,\\0,1\C\C,1,1.39513\C,2,1.39224,1,107.423\C,3,1.38614,2,118.894,1,141.792,0\C,2,1.4037,1,120.161,3,151.135,0\C,5,1.36,2,116.881,1,-6.96102,0\C,1,1.41035,2,108.442,3,-2.11029,0\C,7,1.36765,1,107.671,2,-2.55008,0\C,7,1.40761,1,119.947,2,-143.571,0\C,9,1.38685,7,118.777,1,1.89018,0\C,10,1.38942,9,109.608,7,140.76,0\C,11,1.40187,10,121.152,9,-144.931,0\C,11,1.40671,10,107.721,9,0.0624299,0\C,13,1.4101,11,107.806,10,-0.297253,0\C,14,1.39447,13,119.814,11,-141.658,0\C,15,1.38397,14,120.309,13,136.683,0\C,16,1.36708,15,108.221,14,-140.802,0\C,17,1.39969,16,109.645,15,2.3529,0\C,18,1.39349,17,122.098,16,148.613,0\C,19,1.39626,18,115.748,17,-141.754,0\C,20,1.39661,19,106.337,18,138.604,0\C,21,1.40188,20,110.353,19,-1.10092,0\C,22,1.40704,21,108.197,20,-1.06831,0\C,23,1.38355,22,122.359,21,-139.199,0\C,24,1.39131,23,122.084,22,139.538,0\C,15,1.41233,14,117.696,13,0.597636,0\C,26,1.37322,15,122.531,14,0.413592,0\C,27,1.35184,26,122.215,15,142.126,0\C,27,1.38666,26,121.322,15,-3.08867,0\C,1,1.41279,2,122.068,3,-150.283,0\C,30,1.34426,1,116.737,2,135.107,0\C,30,1.35178,1,116.926,2,3.79254,0\C,31,1.40912,30,107.677,1,-135.402,0\C,33,1.40827,31,109.156,30,1.49921,0\C,34,1.39566,33,119.24,31,148.396,0\C,35,1.40783,34,117.336,33,-133.736,0\C,36,1.41071,35,116.769,34,-6.55887,0\C,12,1.41506,11,120.125,10,1.57461,0\C,38,1.37618,12,107.65,11,141.198,0\C,21,1.41802,20,119.495,19,-140.618,0\C,40,1.35822,21,119.518,20,-4.09668,0\C,41,1.38275,40,125.048,21,1.87856,0\C,42,1.37189,41,121.982,40,138.764,0\C,41,1.40362,40,106.234,21,151.556,0\C,44,1.4039,41,118.975,40,-138.078,0\C,40,1.40867,21,124.092,20,145.439,0\C,46,1.41075,40,115.975,21,-11.8354,0\C,47,1.35886,46,121.341,40,-134.72,0\C,48,1.37358,47,121.629,46,2.38741,0\C,47,1.40386,46,122.042,40,8.34612,0\C,50,1.4051,47,110.841,46,-146.942,0\C,51,1.40218,50,103.364,47,-0.124009,0\C,52,1.41655,51,117.122,50,145.858,0\C,51,1.4222,50,121.673,47,139.178,0\C,54,1.3698,51,123.047,50,-139.818,0\C,53,1.42792,52,122.314,51,-2.10584,0\C,39,1.42953,38,120.745,12,-151.218,0\C,45,1.44311,44,119.493,41,-10.8243,0\C,49,1.45841,48,122.054,47,-11.7531,0\C,46,1.47598,40,112.632,21,-157.131,0\C,59,1.55793,49,132.337,48,-64.793,0\C,61,1.53129,59,121.686,49,-155.816,0\C,62,1.37545,61,121.24,59,-120.854,0\H,63,1.08633,62,115.752,61,-0.443366,0\C,63,1.37568,62,122.947,61,-177.011,0\H,65,1.08618,63,116.625,62,176.332,0\C,65,1.3906,63,120.54,62,6.42781,0\H,67,1.08612,65,112.847,63,173.375,0\C,62,1.40735,61,119.941,59,67.3379,0\H,69,1.08619,62,120.467,61,-14.2718,0\C,69,1.41641,62,119.515,61,171.692,0\H,71,1.08553,69,123.31,62,179.911,0\C,61,1.60229,59,114.527,49,2.83625,0\H,73,1.09656,61,111.238,59,0.777797,0\H,73,1.09694,61,117.866,59,114.978,0\C,73,1.54084,61,112.637,59,-123.154,0\H,76,1.09679,73,112.831,61,59.9075,0\H,76,1.09729,73,111.481,61,-63.9001,0\C,76,1.55207,73,112.519,61,178.155,0\H,79,1.09639,76,113.75,73,-61.4277,0\H,79,1.09678,76,108.936,73,60.2618,0\C,79,1.53677,76,109.192,73,178.632,0\O,82,1.20181,79,118.301,76,86.9909,0\O,82,1.37564,79,115.449,76,-88.8143,0\C,84,1.43959,82,122.317,79,175.016,0\H,85,1.09665,84,110.147,82,52.8561,0\H,85,1.09691,84,108.74,82,-69.2835,0\H,85,1.09707,84,115.29,82,164.434,0\C,1,3.09238,2,117.089,3,91.4181,0\C,89,1.40851,1,87.2783,2,-24.4123,0\C,90,1.40277,89,119.523,1,84.5377,0\C,91,1.37784,90,119.52,89,138.828,0\C,90,1.41066,89,110.489,1,-127.152,0\C,93,1.38019,90,120.764,89,-140.868,0\C,94,1.36408,93,122.279,90,135.541,0\C,95,1.38059,94,120.64,93,-4.11509,0\C,96,1.38142,95,122.161,94,-138.314,0\C,93,1.40672,90,106.124,89,-3.11729,0\C,98,1.3902,93,121.243,90,-141.808,0\C,99,1.38244,98,122.698,93,139.137,0\C,97,1.40994,96,120.246,95,4.65542,0\C,91,1.41406,90,118.964,89,5.77344,0\C,102,1.39105,91,110.957,90,144.309,0\C,103,1.36811,102,104.14,91,-7.4883,0\C,103,1.40052,102,120.868,91,-145.167,0\C,105,1.40417,103,121.798,102,-4.15366,0\C,106,1.403,105,110.93,103,135.628,0\C,107,1.36845,106,108.027,105,4.12412,0\C,107,1.38092,106,123.796,105,-137.227,0\C,109,1.37873,107,120.926,106,-0.853118,0\C,110,1.37722,109,107.573,107,143.474,0\C,111,1.3839,110,109.53,109,6.76583,0\C,110,1.38759,109,120.629,107,4.92143,0\C,112,1.40485,111,109.036,110,-6.66543,0\C,108,1.41153,107,106.704,106,-3.74152,0\C,115,1.39327,108,122.039,107,-143.631,0\C,116,1.33875,115,123.239,108,136.074,0\C,116,1.41591,115,120.368,108,-1.99404,0\C,118,1.3914,116,111,115,142.317,0\C,119,1.34694,118,105.257,116,3.17252,0\C,120,1.41536,119,119.423,118,-141.667,0\C,121,1.37967,120,122.815,119,-0.940569,0\C,122,1.39669,121,115.842,120,-0.744521,0\C,123,1.35659,122,122.542,121,3.98214,0\C,121,1.40341,120,123.31,119,138.663,0\C,114,1.42032,112,123.157,111,-142.251,0\C,126,1.40341,114,114.566,112,133.214,0\C,127,1.3737,126,111.183,114,-137.646,0\C,124,1.42273,123,111.239,122,141.533,0\C,129,1.38009,124,119.947,123,-151.172,0\C,129,1.38905,124,105.72,123,-4.95334,0\C,131,1.35574,129,124.333,124,-146.756,0\C,132,1.35684,131,119.306,129,140.478,0\C,133,1.35419,132,106.243,131,-131.902,0\C,134,1.39077,133,121.089,132,151.238,0\C,135,1.38722,134,120.057,133,-9.74546,0\C,135,1.39243,134,116.815,133,-148.05,0\C,136,1.41368,135,107.272,134,-140.019,0\C,138,1.42431,136,108.611,135,0.778489,0\C,139,1.38312,138,118.929,136,140.963,0\C,140,1.39032,139,124.483,138,-4.79922,0\C,141,1.37706,140,112.145,139,-142.184,0\C,142,1.41109,141,109.455,140,3.78472,0\C,134,1.42557,133,113.905,132,-10.0268,0\C,98,1.42715,93,110.006,90,3.14028,0\C,97,1.42797,96,108.467,95,146.939,0\C,130,1.48243,129,115.151,124,141.179,0\C,147,1.46821,130,122.948,129,3.84241,0\C,147,1.49609,130,125.278,129,81.6821,0\C,149,1.50262,147,118.609,130,138.235,0\C,150,1.41381,149,120.883,147,-69.7199,0\H,151,1.08581,150,125.08,149,1.10568,0\C,151,1.4028,150,115.681,149,-169.963,0\H,153,1.08587,151,115.509,150,175.076,0\C,153,1.41477,151,123.66,150,-18.1453,0\H,155,1.08565,153,119.711,151,-163.863,0\C,155,1.3725,153,117.263,151,11.0023,0\H,157,1.08661,155,118.772,153,179.027,0\C,157,1.37222,155,120.733,153,1.75791,0\H,159,1.08549,157,116.425,155,-172.048,0\C,149,1.57092,147,117.977,130,-6.84415,0\H,161,1.09698,149,111.408,147,-57.6919,0\H,161,1.0973,149,102.721,147,-170.532,0\C,161,1.52211,149,111.787,147,65.0035,0\H,164,1.09706,161,108.454,149,60.5414,0\H,164,1.09706,161,108.19,149,-58.2612,0\C,164,1.53356,161,110.91,149,-178.154,0\H,167,1.09691,164,111.996,161,-59.9556,0\H,167,1.09703,164,119.433,161,60.9315,0\C,167,1.45794,164,117.635,161,-174.527,0\O,170,1.21633,167,120.068,164,-19.712,0\O,170,1.30884,167,113.755,164,158.673,0\C,172,1.49889,170,113.769,167,175.263,0\H,173,1.09654,172,106.666,170,60.417,0\H,173,1.09681,172,110.008,170,-174.681,0\H,173,1.09716,172,111.917,170,-54.1058,0\\\@

 Total job time:  844.84s(wall), 8070.39s(cpu) 
 Mon Oct 15 01:06:48 2018

        *************************************************************
        *                                                           *
        *  Thank you very much for using Q-Chem.  Have a nice day.  *
        *                                                           *
        *************************************************************


