
Running Job 1 of 1 ./6/10.qcin
qchem ./6/10.qcin_50590.0 /tmpu/cab_g/afmv_a/scratch_qchem/qchem50590/ 1
/tmpu/appuserlic/qchem4.4/serial-multicore/exe/qcprog.exe_s ./6/10.qcin_50590.0 /tmpu/cab_g/afmv_a/scratch_qchem/qchem50590/
Check license passed

                  Welcome to Q-Chem
     A Quantum Leap Into The Future Of Chemistry


 Q-Chem 4.4, Q-Chem, Inc., Pleasanton, CA (2016)

 Y. Shao,  Z. Gan,  E. Epifanovsky,  A. T. B. Gilbert,  M. Wormit,  
 J. Kussmann,  A. W. Lange,  A. Behn,  J. Deng,  X. Feng,  D. Ghosh,  
 M. Goldey,  P. R. Horn,  L. D. Jacobson,  I. Kaliman,  F. Rob,  
 R. Z. Khaliullin,  T. Kus,  A. Landau,  J. Liu,  E. I. Proynov,  Y. M. Rhee,  
 R. M. Richard,  M. A. Rohrdanz,  R. P. Steele,  E. J. Sundstrom,  
 H. L. Woodcock III,  P. M. Zimmerman,  D. Zuev,  B. Albrecht,  E. Alguire,  
 B. Austin,  S. A. Baeppler,  G. J. O. Beran,  Y. A. Bernard,  E. Berquist,  
 K. Brandhorst,  K. B. Bravaya,  S. T. Brown,  D. Casanova,  C.-M. Chang,  
 Y. Chen,  S. H. Chien,  K. D. Closser,  M. P. Coons,  D. L. Crittenden,  
 S. Dasgupta,  M. Diedenhofen,  R. A. DiStasio Jr.,  H. Do,  A. D. Dutoi,  
 R. G. Edgar,  P.-T. Fang,  S. Fatehi,  Q. Feng,  L. Fusti-Molnar,  
 A. Ghysels,  A. Golubeva-Zadorozhnaya,  J. Gomes,  A. Gunina,  
 M. W. D. Hanson-Heine,  P. H. P. Harbach,  A. W. Hauser,  J. E. Herr,  
 E. G. Hohenstein,  Z. C. Holden,  K. Hui,  T.-C. Jagau,  H. Ji,  B. Kaduk,  
 K. Khistyaev,  Jaehoon Kim,  Jihan Kim,  R. A. King,  P. Klunzinger,  
 K. Koh,  D. Kosenkov,  T. Kowalczyk,  C. M. Krauter,  A. Kunitsa,  
 K. U. Lao,  A. Laurent,  K. V. Lawler,  J. Lee,  D. Lefrancois,  S. Lehtola,  
 S. V. Levchenko,  C. Y. Lin,  Y.-S. Lin,  F. Liu,  E. Livshits,  
 R. C. Lochan,  A. Luenser,  P. Manohar,  S. F. Manzer,  S.-P. Mao,  Y. Mao,  
 N. Mardirossian,  A. V. Marenich,  L. A. Martinez-Martinez,  S. A. Maurer,  
 N. J. Mayhall,  J.-M. Mewes,  A. F. Morrison,  K. Nanda,  T. S. Nguyen-Beck,  
 C. M. Oana,  R. Olivares-Amaya,  D. P. O'Neill,  J. A. Parkhill,  
 T. M. Perrine,  R. Peverati,  P. A. Pieniazek,  F. Plasser,  A. Prociuk,  
 D. R. Rehn,  E. Rosta,  N. J. Russ,  N. Sergueev,  S. M. Sharada,  
 S. Sharma,  D. W. Small,  A. Sodt,  T. Stauch,  T. Stein,  D. Stuck,  
 Y.-C. Su,  A. J. W. Thom,  T. Tsuchimochi,  L. Vogt,  O. Vydrov,  T. Wang,  
 M. A. Watson,  J. Wenzel,  A. White,  C. F. Williams,  V. Vanovschi,  
 K. Yao,  S. Yeganeh,  S. R. Yost,  Z.-Q. You,  I. Y. Zhang,  X. Zhang,  
 Y. Zhao,  B. R. Brooks,  G. K. L. Chan,  D. M. Chipman,  C. J. Cramer,  
 W. A. Goddard III,  M. S. Gordon,  W. J. Hehre,  A. Klamt,  
 H. F. Schaefer III,  M. W. Schmidt,  C. D. Sherrill,  D. G. Truhlar,  
 A. Warshel,  X. Xu,  A. Aspuru-Guzik,  R. Baer,  A. T. Bell,  N. A. Besley,  
 J.-D. Chai,  A. Dreuw,  B. D. Dunietz,  T. R. Furlani,  S. R. Gwaltney,  
 C.-P. Hsu,  Y. Jung,  J. Kong,  D. S. Lambrecht,  W. Liang,  C. Ochsenfeld,  
 V. A. Rassolov,  L. V. Slipchenko,  J. E. Subotnik,  T. Van Voorhis,  
 J. M. Herbert,  A. I. Krylov,  P. M. W. Gill,  M. Head-Gordon

 Contributors to earlier versions of Q-Chem not listed above: 
 R. D. Adamson,  J. Baker,  E. F. C. Byrd,  A. K. Chakraborty,  C.-L. Cheng,  
 H. Dachsel,  R. J. Doerksen,  G. Hawkins,  A. Heyden,  S. Hirata,  
 G. Kedziora,  F. J. Keil,  C. Kelley,  P. P. Korambath,  W. Kurlancheek,  
 A. M. Lee,  M. S. Lee,  D. Liotard,  I. Lotan,  P. E. Maslen,  N. Nair,  
 D. Neuhauser,  R. Olson,  B. Peters,  J. Ritchie,  N. E. Schultz,  
 N. Shenvi,  A. C. Simmonett,  K. S. Thanthiriwatte,  Q. Wu,  W. Zhang

 Please cite Q-Chem as follows:
 Y. Shao et al., Mol. Phys. 113, 184-215 (2015)
 DOI: 10.1080/00268976.2014.952696

 Q-Chem 4.4.2 for Intel X86 Linux

 Parts of Q-Chem use Armadillo 5.200.1 (Boston Tea Smuggler).
 http://arma.sourceforge.net/

 Q-Chem begins on Mon Oct 15 01:06:49 2018  

Host: 
0

     Scratch files written to /tmpu/cab_g/afmv_a/scratch_qchem/qchem50590//
 Dec716 11556_ 22328  22283 4050   
Processing $rem in /tmpu/appuserlic/qchem4.4/serial-multicore/config/preferences.
 MEM_TOTAL  2000 
FILE_GEOM_ORG=        593

Checking the input file for inconsistencies... 	...done.

--------------------------------------------------------------
User input:
--------------------------------------------------------------
$comment
SP
$end

$rem
MEM_STATIC 5000
MEM_TOTAL 20000
JOBTYPE SP
EXCHANGE B3LYP
BASIS 6-31g(d,p)
$end

$molecule
0 1
O         -19.233000     -5.232000     11.570000
C         -20.647000     -4.846000     11.346000
H         -20.549000     -3.798000     11.036000
H         -21.268000     -4.886000     12.250000
H         -20.930000     -5.450000     10.476000
O         -19.620000     -7.107000     12.870000
C         -18.865000     -6.323000     12.266000
C         -17.343000     -6.549000     12.247000
H         -17.046000     -7.332000     12.955000
H         -16.871000     -5.566000     12.369000
C         -17.005000     -6.985000     10.822000
H         -17.440000     -6.244000     10.141000
H         -15.918000     -7.038000     10.676000
C         -17.469000     -8.451000     10.572000
H         -16.666000     -9.074000     10.986000
H         -18.364000     -8.658000     11.172000
C         -17.536000     -8.848000      9.135000
C         -18.719000     -8.105000      8.472000
C         -18.427000     -6.967000      7.677000
H         -17.388000     -6.702000      7.505000
C         -19.494000     -6.252000      7.144000
H         -19.235000     -5.323000      6.647000
C         -20.803000     -6.661000      7.393000
H         -21.611000     -6.077000      6.963000
C         -21.120000     -7.801000      8.178000
H         -22.148000     -8.151000      8.166000
C         -20.021000     -8.508000      8.661000
H         -20.270000     -9.374000      9.268000
C         -17.782000    -12.912000      5.490000
C         -16.534000    -11.111000      4.353000
C         -12.412000    -13.189000      4.377000
C         -15.441000    -13.876000      9.877000
C         -11.289000    -11.312000      7.045000
C         -17.474000    -11.525000      5.227000
C         -12.660000    -13.497000      9.644000
C         -14.665000    -14.170000      3.918000
C         -14.461000     -8.819000      6.837000
C         -14.873000    -12.700000     10.427000
C         -16.188000     -9.151000      8.533000
C         -13.853000     -9.100000      8.087000
C         -13.291000    -11.201000      9.949000
C         -11.738000    -13.092000      8.713000
C         -16.629000     -9.529000      5.967000
C         -11.555000    -13.615000      6.326000
C         -17.199000    -10.277000      8.707000
C         -16.842000    -11.387000      9.671000
C         -11.301000    -12.307000      6.049000
C         -14.805000    -15.840000      7.090000
C         -13.195000    -15.185000      5.586000
C         -14.444000    -15.168000      4.900000
C         -15.901000    -13.438000      3.981000
C         -17.332000    -12.618000      9.096000
C         -15.875000     -8.891000      7.056000
C         -15.707000    -12.080000      3.734000
C         -13.494000    -12.511000     10.221000
C         -15.920000     -9.912000      4.825000
C         -12.586000     -9.778000      8.106000
C         -16.691000    -14.863000      8.209000
C         -13.663000    -13.161000      3.685000
C         -14.791000     -9.419000      9.115000
C         -16.642000    -14.783000      5.832000
C         -12.263000    -10.796000      9.072000
C         -13.796000     -9.146000      5.623000
C         -12.681000    -15.063000      7.923000
C         -13.270000    -14.729000      9.184000
C         -12.491000     -9.752000      5.680000
C         -16.640000    -13.839000      9.249000
C         -15.529000    -11.499000     10.212000
C         -15.482000    -15.504000      8.276000
C         -17.869000    -10.953000      7.617000
C         -13.733000    -10.741000      3.976000
C         -14.558000    -10.523000      9.958000
C         -11.895000    -10.051000      6.939000
C         -17.296000    -14.491000      6.995000
C         -11.822000    -12.009000      4.779000
C         -16.931000    -13.816000      4.851000
C         -12.219000    -14.210000      5.304000
C         -14.525000     -9.750000      4.596000
C         -12.480000    -10.775000      4.631000
C         -17.535000    -10.557000      6.263000
C         -17.995000    -12.316000      7.913000
C         -13.416000    -15.662000      6.920000
C         -14.346000    -11.927000      3.614000
C         -11.510000    -11.755000      8.389000
C         -14.706000    -14.913000      9.303000
C         -11.708000    -14.082000      7.644000
C         -17.918000    -13.257000      6.872000
C         -15.389000    -15.448000      5.883000
O         -16.707000    -17.856000      2.477000
C         -15.293000    -17.479000      2.218000
H         -14.748000    -18.196000      1.591000
H         -14.760000    -17.410000      3.174000
H         -15.301000    -16.504000      1.717000
O         -17.560000    -16.113000      1.220000
C         -17.707000    -17.077000      1.958000
C         -19.065000    -17.520000      2.486000
H         -19.104000    -18.611000      2.375000
H         -19.770000    -16.981000      1.841000
C         -19.303000    -17.152000      3.932000
H         -18.363000    -17.225000      4.493000
H         -19.547000    -16.084000      3.876000
C         -20.360000    -18.026000      4.576000
H         -21.373000    -17.804000      4.219000
H         -20.140000    -19.067000      4.308000
C         -20.349000    -17.830000      6.081000
C         -19.349000    -18.746000      6.646000
C         -18.178000    -18.129000      7.023000
H         -17.948000    -17.107000      6.738000
C         -17.101000    -18.837000      7.607000
H         -16.129000    -18.425000      7.861000
C         -17.408000    -20.125000      8.019000
H         -16.656000    -20.754000      8.485000
C         -18.584000    -20.805000      7.642000
H         -18.826000    -21.782000      8.050000
C         -19.536000    -20.132000      6.951000
H         -20.454000    -20.677000      6.749000
C         -23.455000    -18.340000     10.683000
C         -21.695000    -16.869000     11.318000
C         -24.278000    -12.994000     11.685000
C         -25.879000    -16.540000      6.623000
C         -23.270000    -11.946000      8.477000
C         -22.126000    -17.918000     10.550000
C         -25.812000    -13.767000      6.629000
C         -24.745000    -15.296000     12.247000
C         -20.385000    -14.704000      8.133000
C         -24.876000    -15.893000      5.851000
C         -20.850000    -16.578000      6.792000
C         -21.061000    -14.205000      7.004000
C         -23.565000    -14.096000      5.768000
C         -25.341000    -12.702000      7.319000
C         -20.683000    -16.771000      9.285000
C         -25.265000    -12.348000      9.708000
C         -21.747000    -17.796000      6.779000
C         -23.154000    -17.610000      6.285000
C         -23.914000    -11.930000      9.667000
C         -27.128000    -15.917000      9.758000
C         -26.399000    -14.084000     10.979000
C         -26.030000    -15.254000     11.645000
C         -23.953000    -16.486000     12.167000
C         -24.146000    -18.280000      7.114000
C         -20.407000    -16.099000      8.111000
C         -22.603000    -16.153000     12.135000
C         -24.843000    -14.510000      5.905000
C         -20.840000    -16.180000     10.520000
C         -21.824000    -13.042000      7.123000
C         -26.125000    -17.714000      8.479000
C         -23.882000    -14.211000     12.306000
C         -21.486000    -15.293000      6.145000
C         -25.654000    -17.529000     10.842000
C         -23.087000    -12.991000      6.449000
C         -20.536000    -14.062000      9.354000
C         -26.888000    -13.668000      8.610000
C         -26.735000    -14.406000      7.443000
C         -21.330000    -12.868000      9.413000
C         -25.497000    -17.711000      7.220000
C         -23.570000    -16.367000      5.729000
C         -26.956000    -16.606000      8.539000
C         -22.116000    -18.383000      8.122000
C         -21.646000    -14.079000     11.366000
C         -22.787000    -15.229000      5.691000
C         -21.982000    -12.377000      8.307000
C         -25.484000    -18.188000      9.597000
C         -23.314000    -12.340000     10.876000
C         -24.377000    -17.585000     11.415000
C         -25.492000    -12.959000     10.951000
C         -20.731000    -14.772000     10.583000
C         -22.027000    -12.883000     10.678000
C         -21.482000    -17.954000      9.307000
C         -23.464000    -18.709000      8.253000
C         -27.105000    -14.495000      9.770000
C         -22.582000    -14.766000     12.147000
C         -23.985000    -12.325000      7.333000
C         -26.789000    -15.831000      7.377000
C         -26.007000    -12.667000      8.549000
C         -24.151000    -18.644000      9.526000
C         -26.527000    -16.383000     10.938000
$end

--------------------------------------------------------------
 ----------------------------------------------------------------
             Standard Nuclear Orientation (Angstroms)
    I     Atom           X                Y                Z
 ----------------------------------------------------------------
    1      O       2.5145295632    -8.7525407043    -0.0026348493
    2      C       1.4337244751    -9.3622138745     0.8089851277
    3      H       1.9936469140   -10.0616540205     1.4424504738
    4      H       0.7029102545    -9.9320837701     0.2210940859
    5      H       1.0875022138    -8.5233349438     1.4239788557
    6      O       1.1938533873    -7.9147975085    -1.7083296568
    7      C       2.2906841571    -8.0709501925    -1.1408126072
    8      C       3.5744387896    -7.4490268818    -1.7179663469
    9      H       3.4075255055    -7.0498780453    -2.7256280768
   10      H       4.3708860428    -8.1955001698    -1.6065823122
   11      C       3.9500573627    -6.3131006480    -0.7674153072
   12      H       3.9712783898    -6.7285345203     0.2469965252
   13      H       4.9329676001    -5.8963562526    -1.0241361168
   14      C       2.9900535593    -5.1005747493    -0.9548336691
   15      H       3.3933007751    -4.5539442578    -1.8167621979
   16      H       1.9981402125    -5.4628920343    -1.2526727153
   17      C       3.0185666964    -4.1043924168     0.1559654854
   18      C       2.3638491774    -4.7386100866     1.4050531195
   19      C       3.2178805492    -5.2282912213     2.4264129007
   20      H       4.2889679558    -5.0778386697     2.3291205726
   21      C       2.6340810635    -5.8686588677     3.5140297624
   22      H       3.3236825946    -6.3349702652     4.2098274405
   23      C       1.2491050625    -6.0108987061     3.5801531693
   24      H       0.8285416477    -6.5187767395     4.4427111775
   25      C       0.3734817730    -5.5217617573     2.5749950224
   26      H      -0.6899596883    -5.5106978488     2.7949901322
   27      C       0.9978985520    -4.8553573110     1.5228791542
   28      H       0.3235178707    -4.4911477229     0.7528349525
   29      C       1.8021912597     0.9514315017     1.8357608008
   30      C       3.8406821335     0.3379266813     3.0855771043
   31      C       6.7193310108     3.2092610591     0.8996302769
   32      C       2.7706533669     0.3211072784    -3.0957824181
   33      C       8.0207213768     0.6872004877    -1.0620209636
   34      C       2.6784607503     0.0053834428     2.4876402760
   35      C       5.4665648996     0.8911726553    -3.6780001387
   36      C       4.3777365971     3.6178358486     1.6736155760
   37      C       6.1949458662    -2.1779179301     1.1237368539
   38      C       3.6569321379    -0.7632321184    -3.3121571225
   39      C       4.2152221683    -3.1893744175     0.1104161472
   40      C       6.4152084102    -2.3686993248    -0.2641434980
   41      C       5.7622571153    -1.3452144819    -2.8570612335
   42      C       6.6187933785     1.2533240480    -3.0283187544
   43      C       4.1088072418    -1.7761736903     2.3270037426
   44      C       6.9856605308     2.8763012747    -1.2293911811
   45      C       2.8253364357    -2.6147167014    -0.1309531952
   46      C       2.5378763034    -2.0478494455    -1.5038600334
   47      C       7.7841747449     1.9877607487    -0.5774864461
   48      C       3.0391495332     3.4627914029    -1.6511746268
   49      C       5.0093865974     4.0808291283    -0.6415527765
   50      C       4.0094038626     4.0447892360     0.3731499664
   51      C       3.5459484473     2.6326085415     2.3099681726
   52      C       1.7041925482    -0.8839868853    -1.3128591504
   53      C       4.8550859115    -2.6162888237     1.3789764699
   54      C       4.3052219154     1.6713556738     2.9750288654
   55      C       5.0097350531    -0.4384072643    -3.5224214486
   56      C       4.7909926689    -0.7156641439     2.9298939026
   57      C       7.2823563219    -1.4588893227    -0.9610181347
   58      C       1.5380285984     1.5895416961    -1.6157137346
   59      C       5.7229704180     3.1663418482     1.9243607345
   60      C       5.2662034137    -2.8532034727    -0.9594364210
   61      C       2.0231851851     2.6673715814     0.4487076916
   62      C       7.0006540818    -0.9792005683    -2.2893070893
   63      C       6.8722496501    -1.1421364683     1.8247121371
   64      C       5.1187734901     3.0104908208    -2.7823608984
   65      C       4.5046193995     1.9676984310    -3.5465577217
   66      C       7.7958188392    -0.2998739982     1.1097828507
   67      C       1.8137008897     0.2547291390    -2.1401727180
   68      C       3.5825324293    -1.8457289677    -2.4509792926
   69      C       2.3594500462     2.4294778576    -2.3205719114
   70      C       2.1397113595    -1.7190055828     0.7754660493
   71      C       6.5757962703     0.9895870518     2.6174751708
   72      C       4.8902902397    -2.2683460396    -2.1843384859
   73      C       7.9965406386    -0.4832672824    -0.2887076436
   74      C       1.3505949073     1.6881186760    -0.2252619409
   75      C       7.6524909691     2.1981326258     0.8051010038
   76      C       2.3177321732     2.2468437143     1.7591921000
   77      C       6.3260671531     3.6737618833    -0.3528079541
   78      C       6.1513862828    -0.3529119103     2.7238598462
   79      C       7.5779310366     1.0556726330     1.6217098338
   80      C       2.8316031846    -1.3120372238     1.9826737601
   81      C       1.4312488450    -0.7579351568     0.0435606580
   82      C       4.3903718254     3.7824529779    -1.9000115103
   83      C       5.6126436643     1.9802772728     2.6828888028
   84      C       7.4135567408     0.3557034888    -2.3161688195
   85      C       3.1174520082     1.6642022066    -3.2403393839
   86      C       6.4346308844     2.5961545679    -2.4929204255
   87      C       1.3041534543     0.5438016760     0.5577775186
   88      C       2.8774064802     3.5472088440    -0.2661540925
   89      O       1.3154656742     6.8089848483     2.1950615048
   90      C       2.7839514615     7.0119523949     2.0903730740
   91      H       3.0964891062     8.0603415129     2.1766486657
   92      H       3.1269725878     6.6481628150     1.1142687515
   93      H       3.2521457613     6.4347275478     2.8961618637
   94      O       1.4593254663     5.7151721902     4.2269535367
   95      C       0.8151418021     6.1272473820     3.2726105988
   96      C      -0.6755516807     5.8669691106     3.1014815191
   97      H      -1.1270465028     6.8190293217     2.7951209799
   98      H      -0.9843137694     5.5276387122     4.0980214598
   99      C      -0.9918681832     4.8056592296     2.0735957245
  100      H      -0.2710061022     4.8617331613     1.2484511467
  101      H      -0.7756782698     3.8733355684     2.6096279176
  102      C      -2.4034841591     4.9336587647     1.5380423140
  103      H      -3.1657249077     4.6358771612     2.2682595130
  104      H      -2.5747487353     5.9909166838     1.2997585807
  105      C      -2.5743630656     4.0571868701     0.3107854471
  106      C      -2.1366399938     4.8313257345    -0.8585684476
  107      C      -0.9006594593     4.4637418282    -1.3394979541
  108      H      -0.2365401780     3.8109001133    -0.7815084601
  109      C      -0.3138374344     5.0767938626    -2.4717771221
  110      H       0.6822690210     4.8832591314    -2.8582486442
  111      C      -1.1753339846     5.8696442080    -3.2148444298
  112      H      -0.8293611180     6.3823205077    -4.1069020441
  113      C      -2.4409640785     6.2883893021    -2.7562182076
  114      H      -3.1190975463     6.8418261169    -3.3991798642
  115      C      -2.9107677714     5.7902935251    -1.5866460264
  116      H      -3.9202793624     6.0850940524    -1.3136405382
  117      C      -6.3671847977     1.4271506450    -2.8170177378
  118      C      -4.3042854562     0.3886229072    -3.3919720352
  119      C      -5.1469470456    -3.7387214187    -1.3727758434
  120      C      -7.1329824992     1.1813569099     2.1782315373
  121      C      -3.2687278362    -2.8056614710     1.4569456509
  122      C      -4.9789723528     1.5089326919    -2.9849221885
  123      C      -5.9668251518    -1.1160824465     3.2058031625
  124      C      -6.5830942871    -2.2159572588    -2.5776855554
  125      C      -1.7121938019     0.4631285286    -0.2577959444
  126      C      -5.8385763444     1.2885657935     2.7558308464
  127      C      -2.6481850430     2.5347983128     0.3409416458
  128      C      -1.9275057517     0.3955246987     1.1313363339
  129      C      -3.9263446794     0.1945015702     3.0739700211
  130      C      -5.2363040811    -2.2014770607     2.8587822744
  131      C      -3.0038834184     1.5562683230    -1.9385637227
  132      C      -5.4377202772    -3.6122119291     0.9074566616
  133      C      -3.9399421391     3.3069569263     0.1878512146
  134      C      -5.0478050958     2.9945353580     1.1539326981
  135      C      -4.0471252716    -3.5647299981     0.6513375554
  136      C      -8.5486951075    -1.1781309844     0.1276390164
  137      C      -7.3706615061    -3.0848993468    -0.4712284533
  138      C      -7.6199762196    -2.3228543141    -1.6139211249
  139      C      -6.3310528631    -0.9643661616    -3.2255735442
  140      C      -6.3512953430     2.8824613644     0.5147475954
  141      C      -2.2850385146     1.6311849615    -0.7622621025
  142      C      -4.9768353835    -0.8505370961    -3.5214636619
  143      C      -5.2661223973     0.1183621834     3.2244607529
  144      C      -3.1219269828     0.4319007698    -2.7266108799
  145      C      -2.1709194110    -0.8440121907     1.7256402042
  146      C      -8.1425606858     1.2091031750     0.2126501908
  147      C      -5.3829613322    -2.9085309300    -2.5035397484
  148      C      -2.5966944534     1.5933366136     1.6000399693
  149      C      -8.0512271534     0.0618506786    -1.9122744892
  150      C      -3.1720044370    -0.9180278420     2.7475973726
  151      C      -1.8020675715    -0.6954500989    -1.0163631922
  152      C      -7.2372821441    -2.4411712395     1.8935468150
  153      C      -7.1932195839    -1.2276423704     2.5683417282
  154      C      -2.0506993351    -1.9409444950    -0.3481723846
  155      C      -7.3591134329     1.9806888304     1.0903403288
  156      C      -4.8306114538     2.1061541181     2.2451919223
  157      C      -8.4590134070     0.0245590434     0.8595952237
  158      C      -4.7376995202     3.0547977756    -1.0708695342
  159      C      -3.1547815201    -1.9479989770    -2.3881573755
  160      C      -3.6646760800     1.3932120003     2.4498507625
  161      C      -2.2515488579    -2.0061258563     1.0100734913
  162      C      -7.9468972910     1.2513267890    -1.1458099678
  163      C      -3.8785017911    -3.6306221985    -0.7475925143
  164      C      -7.0221469848     0.1919935059    -2.8536834603
  165      C      -6.0999634105    -3.7571817173    -0.3214928055
  166      C      -2.4725985699    -0.7422502998    -2.2815761866
  167      C      -2.9021095474    -2.7246122872    -1.2125938337
  168      C      -4.1994363629     2.3099012266    -2.1412077540
  169      C      -6.1043602360     2.8885856483    -0.8583771426
  170      C      -7.9624516244    -2.3636745847     0.6506705165
  171      C      -4.4063634214    -2.0074409604    -3.0110822465
  172      C      -3.8670372272    -2.1445657878     2.5379546103
  173      C      -7.7992850010    -0.0225477458     2.1010852079
  174      C      -6.0338147579    -3.0015602453     2.0332372314
  175      C      -6.9162092044     2.0371629955    -1.7025949574
  176      C      -8.3965325264    -1.1832312706    -1.2679173372
 ----------------------------------------------------------------
 Molecular Point Group                 C1    NOp =  1
 Largest Abelian Subgroup              C1    NOp =  1
 Nuclear Repulsion Energy = 35650.8081045369 hartrees
 There are      462 alpha and      462 beta electrons
 Requested basis set is 6-31G(d,p)
 There are 676 shells and 2360 basis functions

 Total QAlloc Memory Limit  20000 MB
 Mega-Array Size      4888 MB
 MEM_STATIC part      5000 MB
 A cutoff of  1.0D-08 yielded  39009 shell pairs
 There are    542682 function pairs
 
 -------------------------------------------------------
 OpenMP Integral Computing Module                       
 Release: version 1.0, May 2013, Q-Chem Inc. Pittsburgh 
 -------------------------------------------------------
 Integral Job Info:
 Integral job number is                      11
 Integral operator is                         1
 short-range coefficients                     0
 long-range coefficients              100000000
 Omega coefficients                           0
 if combine SR and LR in K                    0
 Integral screening is                        0
 Integral computing path is                   2
 max size of driver memory is            800000
 size of driver memory is                593474
 size of scratch memory is              2260544
 max col of scratch BK array               1296
 max len of scratch array in speh3          155
 max len of scratch index in speh4           18
 max int batch size is                      520
 min int batch size is                       52
 fixed nKL is                                52
 max L of basis functions is                  2
 order of int derivative is                   0
 number of shells is                        676
 number of basis is                        2360
 number of cartesian basis is              2360
 number of contracted shell pairs         39009
 number of primitive shell pairs         116807
 maxK2 (contraction) of shell pair           36
 max number of K2 of shell pair               1
 max number of CS2 of shell pair           7377
 max number of PS2 of shell pair          35040
 mem total for path MDJ                 1540648
 -------------------------------------------------------
 Smallest overlap matrix eigenvalue = 2.48E-04

 Scale SEOQF with 1.000000e-02/1.000000e-02/1.000000e-01

 Standard Electronic Orientation quadrupole field applied
 Nucleus-field energy     =    -0.0000002663 hartrees
 Guess from superposition of atomic densities
 Warning:  Energy on first SCF cycle will be non-variational
 A restricted hybrid HF-DFT SCF calculation will be
 performed using Pulay DIIS extrapolation
 Exchange:     0.2000 Hartree-Fock + 0.0800 Slater + 0.7200 B88
 Correlation:  0.1900 VWN1RPA + 0.8100 LYP
 Using SG-1 standard quadrature grid
 SCF converges when DIIS error is below 1.0E-05
 using 16 threads for integral computing 
 -------------------------------------------------------
 OpenMP BLAS3 based DFT computing Module                
 Release: version 1.0, May 2013, Q-Chem Inc. Pittsburgh 
 -------------------------------------------------------
 ---------------------------------------
  Cycle       Energy         DIIS Error
 ---------------------------------------
    1   -5858.2374498743      1.83E-02
    2   -5803.0599978055      1.31E-03
    3   -5802.0400625356      1.89E-03
    4   -5803.8728879235      7.06E-04
    5   -5804.1694067945      2.97E-04
    6   -5804.2227999497      1.42E-04
    7   -5804.2348801862      5.96E-05
    8   -5804.2365487952      3.83E-05
    9   -5804.2376820180      8.89E-06 Convergence criterion met
 ---------------------------------------
 SCF time:  CPU 8518.02 s  wall 874.49 s
 SCF   energy in the final basis set = -5804.2376820180
 Total energy in the final basis set = -5804.2376820180
 
 --------------------------------------------------------------
 
                    Orbital Energies (a.u.)
 --------------------------------------------------------------
 
 Alpha MOs
 -- Occupied --
-19.196 -19.191 -19.133 -19.128 -10.316 -10.314 -10.255 -10.252
-10.247 -10.242 -10.241 -10.240 -10.240 -10.240 -10.238 -10.238
-10.233 -10.232 -10.232 -10.231 -10.230 -10.229 -10.228 -10.228
-10.228 -10.227 -10.227 -10.227 -10.226 -10.225 -10.225 -10.224
-10.224 -10.224 -10.223 -10.223 -10.223 -10.223 -10.223 -10.222
-10.222 -10.222 -10.222 -10.222 -10.222 -10.222 -10.222 -10.221
-10.221 -10.220 -10.220 -10.220 -10.220 -10.219 -10.219 -10.219
-10.219 -10.219 -10.219 -10.219 -10.218 -10.218 -10.218 -10.218
-10.217 -10.217 -10.217 -10.217 -10.217 -10.216 -10.216 -10.216
-10.216 -10.216 -10.216 -10.216 -10.216 -10.216 -10.215 -10.215
-10.215 -10.215 -10.215 -10.215 -10.215 -10.214 -10.214 -10.214
-10.214 -10.214 -10.214 -10.214 -10.214 -10.214 -10.214 -10.214
-10.213 -10.213 -10.213 -10.212 -10.212 -10.212 -10.212 -10.211
-10.211 -10.211 -10.210 -10.210 -10.210 -10.210 -10.210 -10.210
-10.209 -10.209 -10.209 -10.208 -10.208 -10.208 -10.208 -10.207
-10.207 -10.207 -10.207 -10.206 -10.206 -10.205 -10.205 -10.205
-10.204 -10.204 -10.203 -10.202 -10.202 -10.201 -10.201 -10.201
-10.200 -10.200 -10.199 -10.199 -10.196 -10.195 -10.195 -10.193
-10.193 -10.193 -10.192 -10.192  -1.086  -1.081  -1.003  -0.995
 -0.985  -0.983  -0.968  -0.968  -0.965  -0.963  -0.961  -0.960
 -0.938  -0.933  -0.931  -0.928  -0.928  -0.926  -0.925  -0.923
 -0.922  -0.916  -0.899  -0.899  -0.891  -0.889  -0.889  -0.881
 -0.876  -0.875  -0.858  -0.854  -0.845  -0.841  -0.841  -0.839
 -0.836  -0.835  -0.825  -0.824  -0.809  -0.808  -0.802  -0.800
 -0.799  -0.796  -0.795  -0.791  -0.791  -0.789  -0.786  -0.785
 -0.772  -0.771  -0.769  -0.768  -0.766  -0.766  -0.766  -0.764
 -0.757  -0.756  -0.744  -0.740  -0.736  -0.731  -0.720  -0.718
 -0.716  -0.715  -0.714  -0.713  -0.713  -0.712  -0.710  -0.708
 -0.708  -0.707  -0.706  -0.706  -0.703  -0.703  -0.672  -0.672
 -0.662  -0.659  -0.659  -0.655  -0.648  -0.646  -0.636  -0.632
 -0.631  -0.628  -0.627  -0.624  -0.624  -0.620  -0.619  -0.616
 -0.616  -0.614  -0.613  -0.613  -0.612  -0.611  -0.610  -0.607
 -0.607  -0.604  -0.604  -0.602  -0.568  -0.567  -0.566  -0.564
 -0.561  -0.560  -0.558  -0.558  -0.557  -0.557  -0.554  -0.552
 -0.542  -0.540  -0.539  -0.531  -0.531  -0.530  -0.527  -0.526
 -0.525  -0.522  -0.521  -0.518  -0.518  -0.517  -0.516  -0.511
 -0.509  -0.506  -0.501  -0.494  -0.492  -0.490  -0.488  -0.487
 -0.484  -0.484  -0.481  -0.480  -0.480  -0.478  -0.477  -0.475
 -0.475  -0.473  -0.471  -0.470  -0.469  -0.468  -0.467  -0.467
 -0.466  -0.466  -0.464  -0.464  -0.463  -0.462  -0.460  -0.459
 -0.456  -0.455  -0.455  -0.452  -0.451  -0.449  -0.449  -0.446
 -0.443  -0.442  -0.440  -0.440  -0.440  -0.437  -0.435  -0.434
 -0.433  -0.433  -0.430  -0.430  -0.428  -0.427  -0.427  -0.426
 -0.424  -0.424  -0.422  -0.421  -0.421  -0.420  -0.419  -0.418
 -0.418  -0.417  -0.417  -0.417  -0.416  -0.415  -0.415  -0.413
 -0.411  -0.410  -0.409  -0.408  -0.402  -0.399  -0.398  -0.396
 -0.395  -0.395  -0.393  -0.392  -0.390  -0.388  -0.387  -0.386
 -0.383  -0.379  -0.375  -0.372  -0.370  -0.369  -0.367  -0.367
 -0.365  -0.365  -0.364  -0.362  -0.361  -0.360  -0.359  -0.358
 -0.356  -0.356  -0.355  -0.355  -0.354  -0.354  -0.353  -0.352
 -0.351  -0.350  -0.350  -0.348  -0.347  -0.346  -0.345  -0.344
 -0.344  -0.342  -0.342  -0.341  -0.339  -0.338  -0.337  -0.336
 -0.334  -0.333  -0.330  -0.329  -0.328  -0.326  -0.325  -0.324
 -0.311  -0.307  -0.297  -0.296  -0.289  -0.286  -0.276  -0.272
 -0.271  -0.270  -0.269  -0.267  -0.266  -0.265  -0.263  -0.263
 -0.263  -0.262  -0.260  -0.259  -0.258  -0.257  -0.256  -0.254
 -0.252  -0.248  -0.246  -0.243  -0.226  -0.223  -0.215  -0.214
 -0.209  -0.207  -0.206  -0.204  -0.202  -0.200
 -- Virtual --
 -0.130  -0.126  -0.124  -0.116  -0.112  -0.104  -0.086  -0.080
 -0.076  -0.069  -0.066  -0.062  -0.060  -0.055  -0.031  -0.028
 -0.025  -0.021  -0.019  -0.017  -0.016  -0.016  -0.015  -0.014
 -0.013  -0.011  -0.010  -0.009  -0.004  -0.002   0.001   0.007
  0.009   0.011   0.027   0.033   0.036   0.039   0.043   0.044
  0.050   0.052   0.054   0.056   0.059   0.059   0.062   0.063
  0.071   0.076   0.077   0.079   0.080   0.085   0.086   0.087
  0.089   0.091   0.095   0.099   0.100   0.103   0.105   0.106
  0.107   0.110   0.111   0.112   0.115   0.115   0.118   0.119
  0.119   0.123   0.125   0.126   0.128   0.131   0.132   0.135
  0.139   0.141   0.143   0.144   0.145   0.148   0.150   0.153
  0.156   0.158   0.160   0.164   0.164   0.165   0.166   0.166
  0.168   0.169   0.171   0.172   0.174   0.175   0.177   0.179
  0.182   0.183   0.184   0.184   0.186   0.188   0.189   0.190
  0.193   0.194   0.195   0.197   0.198   0.200   0.201   0.203
  0.205   0.207   0.208   0.210   0.211   0.214   0.215   0.218
  0.218   0.219   0.221   0.222   0.223   0.224   0.226   0.227
  0.227   0.230   0.230   0.234   0.234   0.235   0.237   0.238
  0.240   0.241   0.242   0.244   0.249   0.251   0.256   0.262
  0.264   0.266   0.267   0.270   0.272   0.274   0.275   0.279
  0.280   0.284   0.288   0.294   0.295   0.295   0.301   0.302
  0.303   0.306   0.308   0.309   0.310   0.312   0.314   0.317
  0.317   0.321   0.322   0.324   0.324   0.328   0.329   0.332
  0.333   0.335   0.339   0.339   0.341   0.343   0.346   0.347
  0.350   0.353   0.356   0.358   0.370   0.370   0.377   0.385
  0.387   0.389   0.393   0.394   0.396   0.401   0.403   0.405
  0.407   0.407   0.410   0.411   0.415   0.417   0.421   0.422
  0.424   0.426   0.430   0.431   0.432   0.433   0.435   0.437
  0.442   0.445   0.447   0.452   0.454   0.455   0.458   0.460
  0.464   0.465   0.466   0.467   0.468   0.470   0.471   0.471
  0.473   0.474   0.475   0.478   0.479   0.479   0.481   0.482
  0.483   0.485   0.486   0.486   0.487   0.488   0.490   0.490
  0.491   0.494   0.495   0.497   0.498   0.499   0.501   0.501
  0.502   0.503   0.505   0.505   0.509   0.509   0.511   0.511
  0.512   0.512   0.513   0.514   0.514   0.515   0.516   0.516
  0.518   0.518   0.519   0.520   0.521   0.521   0.523   0.523
  0.524   0.526   0.527   0.528   0.529   0.529   0.531   0.532
  0.532   0.533   0.534   0.535   0.536   0.536   0.536   0.537
  0.538   0.539   0.539   0.539   0.541   0.542   0.543   0.544
  0.545   0.546   0.547   0.547   0.548   0.548   0.549   0.550
  0.551   0.552   0.553   0.553   0.554   0.555   0.556   0.556
  0.557   0.558   0.558   0.559   0.560   0.561   0.561   0.562
  0.563   0.564   0.565   0.566   0.568   0.568   0.569   0.570
  0.570   0.571   0.572   0.574   0.575   0.576   0.577   0.577
  0.579   0.579   0.580   0.580   0.582   0.583   0.584   0.584
  0.586   0.586   0.587   0.587   0.588   0.588   0.589   0.590
  0.591   0.592   0.593   0.594   0.595   0.596   0.597   0.598
  0.600   0.601   0.602   0.603   0.605   0.605   0.607   0.608
  0.609   0.610   0.612   0.613   0.613   0.614   0.614   0.616
  0.617   0.619   0.621   0.621   0.622   0.623   0.624   0.625
  0.627   0.628   0.629   0.629   0.630   0.632   0.632   0.634
  0.634   0.636   0.636   0.638   0.639   0.640   0.640   0.641
  0.642   0.643   0.643   0.644   0.645   0.647   0.648   0.648
  0.648   0.649   0.651   0.652   0.653   0.653   0.654   0.656
  0.656   0.657   0.659   0.659   0.660   0.661   0.661   0.662
  0.663   0.664   0.665   0.667   0.668   0.669   0.669   0.670
  0.671   0.671   0.672   0.674   0.675   0.676   0.678   0.679
  0.681   0.681   0.682   0.684   0.685   0.685   0.686   0.687
  0.688   0.689   0.690   0.691   0.692   0.693   0.694   0.694
  0.695   0.697   0.698   0.699   0.700   0.702   0.702   0.703
  0.703   0.705   0.706   0.708   0.709   0.710   0.712   0.713
  0.715   0.715   0.718   0.719   0.720   0.721   0.722   0.723
  0.723   0.726   0.726   0.728   0.729   0.731   0.732   0.734
  0.735   0.736   0.738   0.738   0.740   0.741   0.743   0.744
  0.745   0.747   0.748   0.749   0.752   0.753   0.755   0.756
  0.758   0.759   0.760   0.760   0.762   0.764   0.765   0.766
  0.768   0.769   0.770   0.772   0.774   0.776   0.776   0.776
  0.778   0.779   0.780   0.781   0.782   0.783   0.784   0.787
  0.787   0.789   0.790   0.791   0.792   0.793   0.794   0.795
  0.797   0.798   0.799   0.800   0.801   0.802   0.803   0.804
  0.805   0.806   0.807   0.808   0.809   0.810   0.810   0.811
  0.813   0.813   0.814   0.815   0.816   0.816   0.817   0.818
  0.819   0.819   0.821   0.821   0.822   0.824   0.825   0.825
  0.826   0.828   0.828   0.830   0.832   0.833   0.836   0.837
  0.838   0.840   0.841   0.843   0.845   0.846   0.848   0.848
  0.852   0.852   0.857   0.860   0.862   0.865   0.866   0.868
  0.873   0.873   0.878   0.883   0.884   0.886   0.888   0.891
  0.892   0.894   0.896   0.900   0.903   0.906   0.908   0.909
  0.912   0.915   0.918   0.919   0.919   0.922   0.922   0.924
  0.925   0.930   0.931   0.932   0.935   0.936   0.939   0.940
  0.941   0.943   0.943   0.945   0.947   0.950   0.951   0.955
  0.956   0.960   0.963   0.966   0.967   0.974   0.975   0.978
  0.978   0.980   0.985   0.986   0.989   0.993   0.995   0.995
  0.996   0.999   1.001   1.003   1.006   1.007   1.007   1.010
  1.012   1.012   1.014   1.014   1.017   1.019   1.020   1.022
  1.023   1.024   1.026   1.028   1.030   1.032   1.033   1.035
  1.039   1.041   1.042   1.043   1.044   1.045   1.045   1.046
  1.048   1.050   1.052   1.053   1.054   1.056   1.059   1.060
  1.062   1.064   1.067   1.069   1.072   1.073   1.075   1.076
  1.077   1.078   1.080   1.081   1.082   1.084   1.085   1.088
  1.090   1.091   1.093   1.095   1.098   1.099   1.099   1.101
  1.102   1.105   1.106   1.107   1.108   1.110   1.113   1.114
  1.116   1.118   1.119   1.121   1.124   1.125   1.126   1.129
  1.131   1.134   1.136   1.137   1.141   1.142   1.144   1.145
  1.146   1.150   1.151   1.154   1.154   1.158   1.159   1.162
  1.164   1.165   1.167   1.167   1.169   1.171   1.173   1.175
  1.176   1.177   1.178   1.180   1.181   1.183   1.185   1.185
  1.187   1.189   1.190   1.194   1.195   1.197   1.197   1.199
  1.200   1.203   1.205   1.208   1.210   1.213   1.216   1.217
  1.218   1.221   1.224   1.227   1.230   1.234   1.235   1.239
  1.240   1.244   1.246   1.248   1.250   1.255   1.256   1.258
  1.260   1.262   1.265   1.266   1.269   1.271   1.272   1.273
  1.277   1.278   1.279   1.281   1.282   1.285   1.286   1.287
  1.290   1.293   1.294   1.296   1.298   1.299   1.304   1.308
  1.309   1.313   1.316   1.317   1.319   1.324   1.326   1.328
  1.332   1.333   1.336   1.339   1.341   1.343   1.345   1.346
  1.349   1.352   1.352   1.354   1.359   1.360   1.363   1.365
  1.367   1.370   1.371   1.374   1.376   1.382   1.383   1.386
  1.389   1.391   1.394   1.396   1.399   1.403   1.404   1.406
  1.407   1.408   1.411   1.414   1.416   1.419   1.424   1.426
  1.429   1.432   1.433   1.437   1.438   1.442   1.446   1.448
  1.451   1.452   1.455   1.456   1.459   1.461   1.462   1.463
  1.464   1.466   1.469   1.470   1.471   1.473   1.475   1.477
  1.478   1.480   1.482   1.485   1.487   1.489   1.492   1.492
  1.497   1.499   1.502   1.503   1.506   1.508   1.513   1.515
  1.518   1.521   1.523   1.528   1.529   1.532   1.535   1.538
  1.538   1.539   1.542   1.545   1.549   1.550   1.554   1.554
  1.556   1.557   1.559   1.564   1.564   1.565   1.566   1.570
  1.571   1.573   1.578   1.579   1.583   1.584   1.586   1.587
  1.590   1.595   1.595   1.602   1.608   1.609   1.613   1.617
  1.621   1.621   1.627   1.629   1.631   1.632   1.637   1.642
  1.645   1.653   1.657   1.660   1.662   1.665   1.666   1.670
  1.677   1.681   1.687   1.691   1.691   1.694   1.695   1.699
  1.703   1.706   1.708   1.710   1.711   1.714   1.716   1.718
  1.722   1.724   1.726   1.728   1.729   1.730   1.731   1.733
  1.736   1.737   1.738   1.740   1.742   1.746   1.746   1.747
  1.749   1.751   1.754   1.755   1.757   1.759   1.760   1.761
  1.763   1.764   1.765   1.767   1.767   1.769   1.769   1.770
  1.771   1.771   1.772   1.775   1.776   1.777   1.778   1.778
  1.779   1.780   1.782   1.783   1.784   1.785   1.787   1.788
  1.789   1.790   1.792   1.793   1.795   1.796   1.798   1.799
  1.802   1.803   1.804   1.805   1.807   1.810   1.811   1.812
  1.813   1.814   1.815   1.818   1.821   1.824   1.825   1.826
  1.828   1.829   1.832   1.833   1.835   1.837   1.838   1.840
  1.841   1.843   1.845   1.846   1.846   1.848   1.850   1.853
  1.855   1.859   1.861   1.862   1.865   1.866   1.867   1.870
  1.872   1.874   1.875   1.879   1.880   1.881   1.883   1.888
  1.889   1.893   1.893   1.894   1.896   1.900   1.904   1.906
  1.907   1.909   1.910   1.911   1.914   1.917   1.922   1.923
  1.925   1.927   1.931   1.932   1.934   1.935   1.936   1.938
  1.940   1.940   1.942   1.945   1.945   1.946   1.947   1.948
  1.951   1.953   1.955   1.959   1.961   1.963   1.965   1.965
  1.968   1.971   1.972   1.976   1.977   1.978   1.981   1.982
  1.985   1.986   1.987   1.989   1.990   1.991   1.995   1.996
  1.997   1.998   2.000   2.000   2.004   2.004   2.006   2.007
  2.009   2.010   2.011   2.011   2.013   2.014   2.015   2.016
  2.018   2.021   2.021   2.022   2.022   2.024   2.025   2.027
  2.028   2.029   2.032   2.032   2.033   2.034   2.035   2.036
  2.036   2.037   2.039   2.040   2.041   2.042   2.042   2.043
  2.045   2.046   2.047   2.048   2.049   2.050   2.051   2.052
  2.055   2.056   2.057   2.058   2.059   2.060   2.062   2.062
  2.063   2.067   2.068   2.069   2.071   2.072   2.074   2.075
  2.076   2.077   2.078   2.080   2.082   2.082   2.084   2.086
  2.089   2.090   2.092   2.092   2.095   2.098   2.099   2.101
  2.103   2.104   2.107   2.109   2.110   2.111   2.112   2.115
  2.117   2.121   2.124   2.127   2.135   2.136   2.137   2.142
  2.146   2.148   2.151   2.154   2.160   2.162   2.163   2.168
  2.170   2.171   2.176   2.179   2.183   2.186   2.192   2.200
  2.202   2.205   2.206   2.211   2.214   2.220   2.220   2.225
  2.226   2.229   2.232   2.235   2.237   2.239   2.240   2.243
  2.246   2.248   2.251   2.254   2.255   2.257   2.261   2.263
  2.265   2.266   2.268   2.273   2.275   2.277   2.278   2.279
  2.280   2.282   2.287   2.289   2.290   2.291   2.295   2.297
  2.298   2.301   2.302   2.303   2.308   2.310   2.311   2.315
  2.317   2.319   2.324   2.326   2.326   2.330   2.331   2.333
  2.335   2.338   2.341   2.341   2.343   2.346   2.348   2.350
  2.350   2.354   2.356   2.357   2.363   2.364   2.364   2.366
  2.368   2.368   2.370   2.373   2.373   2.375   2.377   2.379
  2.380   2.382   2.385   2.386   2.388   2.390   2.392   2.393
  2.395   2.399   2.400   2.401   2.403   2.404   2.406   2.406
  2.410   2.411   2.414   2.417   2.418   2.418   2.422   2.424
  2.425   2.429   2.430   2.431   2.433   2.436   2.442   2.444
  2.446   2.447   2.452   2.452   2.454   2.455   2.457   2.460
  2.461   2.463   2.466   2.467   2.469   2.470   2.472   2.475
  2.479   2.480   2.481   2.483   2.485   2.488   2.489   2.491
  2.493   2.494   2.496   2.498   2.501   2.503   2.504   2.507
  2.509   2.509   2.511   2.513   2.514   2.515   2.517   2.518
  2.521   2.524   2.526   2.528   2.529   2.530   2.533   2.536
  2.540   2.541   2.544   2.547   2.548   2.554   2.557   2.560
  2.563   2.571   2.572   2.573   2.576   2.576   2.579   2.581
  2.584   2.588   2.590   2.591   2.592   2.595   2.598   2.598
  2.600   2.605   2.608   2.609   2.611   2.613   2.616   2.616
  2.618   2.620   2.622   2.623   2.624   2.626   2.629   2.629
  2.630   2.634   2.635   2.636   2.637   2.642   2.642   2.645
  2.645   2.647   2.649   2.651   2.654   2.656   2.657   2.658
  2.659   2.661   2.662   2.663   2.665   2.667   2.670   2.670
  2.671   2.673   2.676   2.676   2.680   2.682   2.685   2.687
  2.689   2.690   2.692   2.695   2.697   2.699   2.701   2.704
  2.710   2.712   2.713   2.714   2.715   2.719   2.721   2.722
  2.726   2.727   2.731   2.731   2.735   2.738   2.738   2.743
  2.744   2.748   2.749   2.751   2.752   2.754   2.758   2.760
  2.761   2.762   2.763   2.765   2.770   2.771   2.774   2.776
  2.777   2.779   2.782   2.784   2.788   2.790   2.792   2.796
  2.798   2.803   2.811   2.813   2.813   2.816   2.817   2.822
  2.825   2.826   2.828   2.829   2.833   2.834   2.837   2.840
  2.841   2.843   2.847   2.849   2.850   2.852   2.853   2.856
  2.859   2.860   2.860   2.862   2.865   2.868   2.869   2.872
  2.873   2.874   2.876   2.879   2.880   2.882   2.884   2.887
  2.888   2.891   2.893   2.894   2.898   2.899   2.900   2.901
  2.904   2.905   2.908   2.910   2.911   2.912   2.915   2.916
  2.917   2.920   2.922   2.923   2.926   2.928   2.929   2.931
  2.932   2.935   2.937   2.938   2.939   2.944   2.947   2.949
  2.951   2.954   2.957   2.959   2.965   2.974   2.978   2.980
  2.980   2.982   2.984   2.989   2.992   2.995   2.998   3.000
  3.006   3.008   3.010   3.013   3.016   3.017   3.019   3.020
  3.023   3.026   3.032   3.038   3.039   3.040   3.043   3.044
  3.046   3.049   3.051   3.053   3.056   3.059   3.063   3.065
  3.069   3.073   3.074   3.079   3.086   3.087   3.091   3.093
  3.098   3.104   3.115   3.122   3.127   3.130   3.139   3.144
  3.148   3.152   3.161   3.166   3.171   3.176   3.180   3.191
  3.192   3.200   3.208   3.210   3.212   3.223   3.230   3.238
  3.244   3.247   3.257   3.260   3.270   3.271   3.277   3.282
  3.285   3.292   3.296   3.305   3.313   3.315   3.317   3.323
  3.324   3.329   3.338   3.352   3.356   3.363   3.367   3.374
  3.375   3.411   3.419   3.425   3.425   3.434   3.446   3.448
  3.451   3.457   3.461   3.463   3.474   3.479   3.480   3.483
  3.491   3.498   3.501   3.516   3.520   3.523   3.530   3.533
  3.539   3.548   3.563   3.567   3.571   3.572   3.582   3.594
  3.613   3.614   3.663   3.693   3.855   3.867   3.992   4.006
  4.061   4.069   4.073   4.082   4.085   4.087   4.091   4.094
  4.099   4.101   4.101   4.108   4.109   4.111   4.117   4.125
  4.127   4.137   4.139   4.141   4.147   4.148   4.152   4.153
  4.160   4.162   4.167   4.170   4.174   4.179   4.181   4.182
  4.186   4.189   4.196   4.204   4.211   4.217   4.234   4.240
  4.242   4.247   4.250   4.253   4.255   4.259   4.262   4.267
  4.270   4.272   4.281   4.284   4.285   4.289   4.291   4.296
  4.305   4.308   4.315   4.320   4.370   4.373   4.387   4.388
  4.392   4.395   4.399   4.406   4.408   4.414   4.416   4.419
  4.422   4.426   4.428   4.431   4.444   4.452   4.456   4.467
  4.489   4.498   4.502   4.511   4.529   4.533   4.547   4.553
  4.554   4.565   4.608   4.619   4.624   4.630   4.631   4.643
  4.660   4.663   4.680   4.685   4.686   4.690   4.697   4.699
  4.703   4.708   4.710   4.713   4.761   4.767   4.806   4.822
  4.843   4.852   4.854   4.866   4.871   4.881   4.885   4.890
  4.898   4.909   4.948   4.952   4.954   4.962   4.964   4.975
  4.980   4.985   5.000   5.015   5.155   5.168   5.172   5.179
  5.189   5.198   5.200   5.219   5.284   5.308   5.314   5.336
  5.348   5.354
 --------------------------------------------------------------
 
          Ground-State Mulliken Net Atomic Charges

     Atom                 Charge (a.u.)
  ----------------------------------------
      1 O                    -0.469511
      2 C                    -0.092086
      3 H                     0.130293
      4 H                     0.145656
      5 H                     0.147008
      6 O                    -0.495084
      7 C                     0.594917
      8 C                    -0.227163
      9 H                     0.129698
     10 H                     0.120583
     11 C                    -0.203879
     12 H                     0.123720
     13 H                     0.100652
     14 C                    -0.189362
     15 H                     0.095521
     16 H                     0.131209
     17 C                     0.011341
     18 C                     0.100386
     19 C                    -0.102872
     20 H                     0.096464
     21 C                    -0.084082
     22 H                     0.091268
     23 C                    -0.100361
     24 H                     0.085405
     25 C                    -0.093822
     26 H                     0.107560
     27 C                    -0.115316
     28 H                     0.097994
     29 C                    -0.046064
     30 C                    -0.012344
     31 C                    -0.007926
     32 C                     0.023514
     33 C                     0.002007
     34 C                     0.016348
     35 C                     0.008478
     36 C                    -0.023072
     37 C                     0.030618
     38 C                    -0.017256
     39 C                    -0.080356
     40 C                     0.005115
     41 C                    -0.003882
     42 C                     0.005521
     43 C                    -0.012472
     44 C                     0.034857
     45 C                    -0.091623
     46 C                     0.015811
     47 C                     0.009406
     48 C                    -0.001814
     49 C                    -0.019806
     50 C                    -0.016240
     51 C                     0.014445
     52 C                    -0.008011
     53 C                    -0.006326
     54 C                     0.019064
     55 C                     0.013572
     56 C                     0.008409
     57 C                     0.000155
     58 C                    -0.007481
     59 C                    -0.012802
     60 C                     0.009143
     61 C                    -0.010792
     62 C                    -0.025605
     63 C                    -0.009352
     64 C                     0.014966
     65 C                    -0.030535
     66 C                    -0.020639
     67 C                     0.002148
     68 C                     0.023881
     69 C                    -0.000671
     70 C                     0.038108
     71 C                    -0.001478
     72 C                     0.006725
     73 C                    -0.000536
     74 C                     0.010032
     75 C                    -0.017751
     76 C                     0.003988
     77 C                     0.018954
     78 C                     0.000396
     79 C                     0.002652
     80 C                     0.006777
     81 C                     0.020596
     82 C                    -0.003019
     83 C                     0.020747
     84 C                     0.000176
     85 C                    -0.011334
     86 C                    -0.025776
     87 C                     0.006703
     88 C                     0.028173
     89 O                    -0.471575
     90 C                    -0.103042
     91 H                     0.124471
     92 H                     0.126367
     93 H                     0.148287
     94 O                    -0.469632
     95 C                     0.576808
     96 C                    -0.238677
     97 H                     0.117040
     98 H                     0.132199
     99 C                    -0.187496
    100 H                     0.121639
    101 H                     0.118826
    102 C                    -0.179234
    103 H                     0.106443
    104 H                     0.118353
    105 C                     0.015643
    106 C                     0.085815
    107 C                    -0.114798
    108 H                     0.089975
    109 C                    -0.085762
    110 H                     0.095631
    111 C                    -0.091827
    112 H                     0.080162
    113 C                    -0.082472
    114 H                     0.094080
    115 C                    -0.095638
    116 H                     0.089100
    117 C                    -0.017334
    118 C                     0.012560
    119 C                    -0.019609
    120 C                     0.001958
    121 C                     0.032093
    122 C                    -0.001232
    123 C                     0.000654
    124 C                     0.016697
    125 C                    -0.000186
    126 C                    -0.030291
    127 C                    -0.090360
    128 C                     0.008740
    129 C                     0.029402
    130 C                    -0.005696
    131 C                     0.019516
    132 C                     0.017119
    133 C                    -0.085833
    134 C                    -0.003661
    135 C                    -0.010490
    136 C                     0.023534
    137 C                    -0.028993
    138 C                     0.005148
    139 C                    -0.018527
    140 C                    -0.023728
    141 C                     0.053562
    142 C                    -0.002570
    143 C                     0.007948
    144 C                     0.006964
    145 C                     0.005050
    146 C                     0.011200
    147 C                     0.003403
    148 C                    -0.001376
    149 C                    -0.005568
    150 C                    -0.055014
    151 C                    -0.005174
    152 C                    -0.001344
    153 C                    -0.003182
    154 C                    -0.015809
    155 C                    -0.005164
    156 C                     0.013217
    157 C                    -0.021349
    158 C                     0.035048
    159 C                     0.000789
    160 C                     0.018533
    161 C                     0.002951
    162 C                     0.005297
    163 C                    -0.021139
    164 C                     0.008833
    165 C                     0.005637
    166 C                    -0.027918
    167 C                     0.005868
    168 C                    -0.013799
    169 C                     0.017059
    170 C                    -0.011916
    171 C                     0.008412
    172 C                     0.000504
    173 C                     0.009261
    174 C                     0.009495
    175 C                    -0.000750
    176 C                    -0.021783
  ----------------------------------------
  Sum of atomic charges =     0.000000

 -----------------------------------------------------------------
                    Cartesian Multipole Moments
 -----------------------------------------------------------------
    Charge (ESU x 10^10)
                 0.0000
    Dipole Moment (Debye)
         X       2.4417      Y      -0.5583      Z       0.2762
       Tot       2.5199
    Quadrupole Moments (Debye-Ang)
        XX    -813.7626     XY     -18.1853     YY    -767.2299
        XZ      -2.9137     YZ     -32.9472     ZZ    -819.6772
    Octopole Moments (Debye-Ang^2)
       XXX     184.4559    XXY       1.7212    XYY     107.5453
       YYY    -175.7374    XXZ      11.6846    XYZ     -15.8316
       YYZ     134.0142    XZZ      -0.0719    YZZ     -76.5850
       ZZZ     -18.5671
    Hexadecapole Moments (Debye-Ang^3)
      XXXX -114645.9488   XXXY    -514.3587   XXYY  -27335.4179
      XYYY   -1092.7395   YYYY  -51120.2470   XXXZ     212.5024
      XXYZ      82.7806   XYYZ      78.2134   YYYZ   -1567.6917
      XXZZ  -22536.0999   XYZZ    -408.1531   YYZZ  -12715.3361
      XZZZ     -31.9313   YZZZ    -452.4367   ZZZZ  -21508.9401
 -----------------------------------------------------------------
Archival summary:
1\1\mn251\SP\ProcedureUnspecified\6-31G**\428\afmv_a\MonOct1501:21:392018MonOct1501:21:392018\0\\#,ProcedureUnspecified,6-31G**,\\0,1\C\C,1,1.38736\C,2,1.36585,1,109.228\C,1,1.40538,2,123.673,3,141.797,0\C,4,1.38934,1,117.324,2,-4.29543,0\C,4,1.40045,1,119.352,2,-142.089,0\C,2,1.40649,1,120.307,3,-141.576,0\C,7,1.37006,2,123.062,1,138.37,0\C,8,1.40635,7,119.692,2,1.25028,0\C,9,1.39699,8,117.41,7,-2.46472,0\C,10,1.39202,9,112.506,8,-148.338,0\C,3,1.40747,2,110.382,1,6.35677,0\C,12,1.39633,3,104.535,2,-0.780804,0\C,12,1.40024,3,117.871,2,-142.878,0\C,14,1.39385,12,118.392,3,134.186,0\C,15,1.37482,14,105.17,12,-144.13,0\C,16,1.38326,15,120.749,14,149.796,0\C,9,1.41064,8,123.058,7,-137.15,0\C,18,1.38023,9,119.442,8,3.77861,0\C,19,1.40959,18,121.721,9,136.006,0\C,20,1.40663,19,119.445,18,-5.47027,0\C,21,1.35625,20,120.475,19,7.87776,0\C,21,1.36092,20,122.012,19,-141.441,0\C,22,1.39249,21,104.349,20,-150.46,0\C,24,1.37917,22,111.962,21,-3.15487,0\C,25,1.40628,24,121.328,22,137.475,0\C,23,1.4079,21,122.469,20,5.67362,0\C,27,1.40307,23,125.313,21,135.169,0\C,28,1.38344,27,109.23,23,-134.661,0\C,22,1.40809,21,119.486,20,-8.19458,0\C,5,1.41178,4,120.943,1,1.58076,0\C,31,1.35401,5,120.527,4,-139.557,0\C,32,1.39466,31,107.224,5,149.155,0\C,17,1.412,16,117.911,15,-6.3314,0\C,34,1.39678,17,109.487,16,-140.016,0\C,16,1.41219,15,112.157,14,-4.0654,0\C,15,1.41635,14,120.52,12,-0.0970733,0\C,37,1.34866,15,118.697,14,-2.73099,0\C,32,1.41707,31,120.815,5,-1.81468,0\C,39,1.38527,32,117.998,31,4.93665,0\C,40,1.39998,39,107.706,32,139.896,0\C,39,1.40705,32,116.582,31,137.588,0\C,42,1.35325,39,107.847,32,-139.606,0\C,41,1.40846,40,122.705,39,-148.913,0\C,43,1.41065,42,120.811,39,147.152,0\C,45,1.39756,43,119.965,42,-5.17065,0\C,46,1.39446,45,117.147,43,5.93695,0\C,47,1.37145,46,123.421,45,-0.672675,0\C,11,1.41745,10,121.669,9,147.125,0\C,38,1.41917,37,107.077,15,-143.015,0\C,50,1.40187,38,108.558,37,-1.60305,0\C,51,1.39769,50,107.422,38,5.42197,0\C,35,1.4223,34,118.88,17,140.535,0\C,53,1.41814,35,120.42,34,-135.831,0\C,40,1.4245,39,124.305,32,-10.9133,0\C,28,1.42467,27,115.854,23,4.0753,0\C,19,1.43129,18,121.491,9,-5.88001,0\C,53,1.43267,35,125.477,34,8.75454,0\C,6,1.44706,4,109.701,1,145.978,0\C,59,1.52324,6,124.513,4,-142.118,0\C,60,1.50709,59,60.6158,6,-111.117,0\C,61,1.49234,60,113.451,59,-112.951,0\H,62,1.09721,61,116.088,60,153.148,0\H,62,1.09742,61,104.187,60,36.4471,0\C,61,1.54632,60,127.562,59,106.443,0\C,65,1.37598,61,121.62,60,-140.749,0\H,66,1.08646,65,121.806,61,1.13121,0\C,66,1.39318,65,123.379,61,-174.278,0\H,68,1.08601,66,125.944,65,-169.916,0\C,65,1.41857,61,117.922,60,40.5556,0\H,70,1.08597,65,118.781,61,-4.30675,0\C,70,1.39061,65,117.991,61,176.327,0\H,72,1.08496,70,115.637,65,-172.734,0\C,72,1.39383,70,120.082,65,0.173209,0\H,74,1.08573,72,118.055,70,-179.829,0\C,62,1.55787,61,114.723,60,-77.5572,0\H,76,1.09639,62,114.718,61,-42.2254,0\H,76,1.09804,62,103.185,61,77.473,0\C,76,1.52806,62,110.626,61,-163.863,0\H,79,1.09661,76,109.782,62,-46.4415,0\H,79,1.09725,76,105.317,62,-173.016,0\C,79,1.53881,76,105.795,62,73.8633,0\O,82,1.24479,79,120.89,76,-108.88,0\O,82,1.34541,79,112.535,76,70.6238,0\C,84,1.48276,82,123.373,79,-175.314,0\H,85,1.09627,84,102.864,82,83.788,0\H,85,1.09727,84,101.897,82,-163.328,0\H,85,1.09748,84,113.934,82,-46.6406,0\H,2,2.70825,1,137.972,3,96.5951,0\C,89,1.08564,2,159.294,1,107.398,0\C,90,1.37625,89,122.032,2,-124.033,0\C,90,1.41501,89,114.716,2,66.0837,0\H,92,1.08584,90,126.017,89,-5.5594,0\C,92,1.3867,90,114.762,89,-177.602,0\H,94,1.0855,92,120.823,90,179.671,0\C,94,1.40979,92,123.589,90,-13.4586,0\H,96,1.08607,94,121.286,92,175.002,0\C,96,1.35525,94,118.867,92,6.85076,0\H,98,1.08653,96,116.053,94,175.563,0\C,91,1.46911,90,113.891,89,11.8808,0\C,100,1.51775,91,107.805,90,-104.085,0\H,101,1.09677,100,107.657,91,-150.207,0\H,101,1.09723,100,111.301,91,-32.8544,0\C,101,1.51521,100,109.993,91,86.3937,0\H,104,1.09695,101,115.349,100,74.995,0\H,104,1.09711,101,109.998,100,-45.2596,0\C,104,1.51095,101,112.095,100,-167.682,0\H,107,1.09707,104,109.985,101,-87.1323,0\H,107,1.09733,104,109.473,101,38.8119,0\C,107,1.52289,104,113.667,101,157.889,0\O,110,1.22293,107,123.074,104,103.98,0\O,110,1.36975,107,110.745,104,-72.9393,0\C,112,1.48614,110,118.968,107,172.467,0\H,113,1.09622,112,107.357,110,-7.00532,0\H,113,1.09672,112,109.053,110,-126.441,0\H,113,1.09738,112,113.976,110,113.665,0\C,100,1.52448,91,123.807,90,54.4551,0\C,117,1.47155,100,125.905,91,-0.825675,0\C,118,1.38059,117,122.928,100,67.8597,0\C,119,1.3781,118,125.176,117,150.209,0\C,120,1.35741,119,112.391,118,-149.841,0\C,121,1.36967,120,104.911,119,1.62514,0\C,118,1.39535,117,110.139,100,-144.788,0\C,123,1.38773,118,118.338,117,-154.051,0\C,122,1.40039,121,111.881,120,-4.17984,0\C,122,1.40072,121,118.429,120,143.586,0\C,126,1.38401,122,117.641,121,-137.499,0\C,126,1.39855,122,120.834,121,-10.0619,0\C,128,1.39753,126,120.408,122,8.1189,0\C,129,1.39083,128,118.059,126,-1.58843,0\C,130,1.38721,129,104.707,128,-142.382,0\C,131,1.39929,130,119.748,129,141.116,0\C,132,1.38945,131,120.674,130,0.359724,0\C,128,1.40078,126,114.109,122,-140.493,0\C,123,1.40734,118,109.527,117,-12.6629,0\C,135,1.39603,123,119.31,118,-143.656,0\C,136,1.36713,135,122.834,123,2.05445,0\C,137,1.3688,136,111.683,135,138.731,0\C,138,1.35318,137,124.109,136,-143.089,0\C,137,1.37456,136,117.922,135,-1.58644,0\C,138,1.40129,137,107.072,136,1.23307,0\C,141,1.4075,138,124.9,137,-146.397,0\C,142,1.35358,141,123.439,138,135.871,0\C,143,1.38667,142,107.155,141,-138.408,0\C,144,1.38922,143,108.761,142,-3.81894,0\C,145,1.33487,144,106.696,143,4.55342,0\C,139,1.4106,138,123.22,137,-1.05222,0\C,127,1.41063,126,111.231,122,140.37,0\C,148,1.37313,127,120.78,126,-144.785,0\C,149,1.3863,148,121.365,127,139.839,0\C,150,1.40668,149,109.477,148,-141.935,0\C,151,1.37815,150,104.294,149,-2.07027,0\C,152,1.36879,151,112.692,150,-1.4766,0\C,125,1.41075,122,123.142,121,145.658,0\C,154,1.39303,125,115.281,122,-3.20343,0\C,155,1.39517,154,108.923,125,-141.935,0\C,150,1.41077,149,120.055,148,-1.82052,0\C,157,1.40384,150,120.796,149,3.68188,0\C,147,1.41082,139,112.309,138,5.72849,0\C,146,1.41266,145,118.588,144,136.873,0\C,160,1.40353,146,122.912,145,5.59261,0\C,147,1.41827,139,109.5,138,143.852,0\C,143,1.41957,142,115.739,141,-0.307222,0\C,163,1.35035,143,122.5,142,8.08052,0\C,164,1.37655,163,106.752,143,-148.726,0\C,165,1.37942,164,123.561,163,149.237,0\C,165,1.38187,164,110.857,163,-2.20776,0\C,164,1.38321,163,121.468,143,-7.1086,0\C,163,1.38445,143,121.767,142,-139.868,0\C,158,1.42179,157,107.7,150,-139.171,0\C,170,1.39593,158,109.627,157,-4.49712,0\C,170,1.41965,158,120.25,157,136.871,0\C,172,1.38761,170,123.907,158,-143.783,0\C,157,1.42224,150,119.579,149,-136.119,0\C,167,1.42381,165,124.342,164,148.944,0\C,175,1.50276,167,120.662,165,5.27447,0\\\@

 Total job time:  890.00s(wall), 8544.29s(cpu) 
 Mon Oct 15 01:21:39 2018

        *************************************************************
        *                                                           *
        *  Thank you very much for using Q-Chem.  Have a nice day.  *
        *                                                           *
        *************************************************************


