
Running Job 1 of 1 ./6/11.qcin
qchem ./6/11.qcin_50663.0 /tmpu/cab_g/afmv_a/scratch_qchem/qchem50663/ 1
/tmpu/appuserlic/qchem4.4/serial-multicore/exe/qcprog.exe_s ./6/11.qcin_50663.0 /tmpu/cab_g/afmv_a/scratch_qchem/qchem50663/
Check license passed

                  Welcome to Q-Chem
     A Quantum Leap Into The Future Of Chemistry


 Q-Chem 4.4, Q-Chem, Inc., Pleasanton, CA (2016)

 Y. Shao,  Z. Gan,  E. Epifanovsky,  A. T. B. Gilbert,  M. Wormit,  
 J. Kussmann,  A. W. Lange,  A. Behn,  J. Deng,  X. Feng,  D. Ghosh,  
 M. Goldey,  P. R. Horn,  L. D. Jacobson,  I. Kaliman,  F. Rob,  
 R. Z. Khaliullin,  T. Kus,  A. Landau,  J. Liu,  E. I. Proynov,  Y. M. Rhee,  
 R. M. Richard,  M. A. Rohrdanz,  R. P. Steele,  E. J. Sundstrom,  
 H. L. Woodcock III,  P. M. Zimmerman,  D. Zuev,  B. Albrecht,  E. Alguire,  
 B. Austin,  S. A. Baeppler,  G. J. O. Beran,  Y. A. Bernard,  E. Berquist,  
 K. Brandhorst,  K. B. Bravaya,  S. T. Brown,  D. Casanova,  C.-M. Chang,  
 Y. Chen,  S. H. Chien,  K. D. Closser,  M. P. Coons,  D. L. Crittenden,  
 S. Dasgupta,  M. Diedenhofen,  R. A. DiStasio Jr.,  H. Do,  A. D. Dutoi,  
 R. G. Edgar,  P.-T. Fang,  S. Fatehi,  Q. Feng,  L. Fusti-Molnar,  
 A. Ghysels,  A. Golubeva-Zadorozhnaya,  J. Gomes,  A. Gunina,  
 M. W. D. Hanson-Heine,  P. H. P. Harbach,  A. W. Hauser,  J. E. Herr,  
 E. G. Hohenstein,  Z. C. Holden,  K. Hui,  T.-C. Jagau,  H. Ji,  B. Kaduk,  
 K. Khistyaev,  Jaehoon Kim,  Jihan Kim,  R. A. King,  P. Klunzinger,  
 K. Koh,  D. Kosenkov,  T. Kowalczyk,  C. M. Krauter,  A. Kunitsa,  
 K. U. Lao,  A. Laurent,  K. V. Lawler,  J. Lee,  D. Lefrancois,  S. Lehtola,  
 S. V. Levchenko,  C. Y. Lin,  Y.-S. Lin,  F. Liu,  E. Livshits,  
 R. C. Lochan,  A. Luenser,  P. Manohar,  S. F. Manzer,  S.-P. Mao,  Y. Mao,  
 N. Mardirossian,  A. V. Marenich,  L. A. Martinez-Martinez,  S. A. Maurer,  
 N. J. Mayhall,  J.-M. Mewes,  A. F. Morrison,  K. Nanda,  T. S. Nguyen-Beck,  
 C. M. Oana,  R. Olivares-Amaya,  D. P. O'Neill,  J. A. Parkhill,  
 T. M. Perrine,  R. Peverati,  P. A. Pieniazek,  F. Plasser,  A. Prociuk,  
 D. R. Rehn,  E. Rosta,  N. J. Russ,  N. Sergueev,  S. M. Sharada,  
 S. Sharma,  D. W. Small,  A. Sodt,  T. Stauch,  T. Stein,  D. Stuck,  
 Y.-C. Su,  A. J. W. Thom,  T. Tsuchimochi,  L. Vogt,  O. Vydrov,  T. Wang,  
 M. A. Watson,  J. Wenzel,  A. White,  C. F. Williams,  V. Vanovschi,  
 K. Yao,  S. Yeganeh,  S. R. Yost,  Z.-Q. You,  I. Y. Zhang,  X. Zhang,  
 Y. Zhao,  B. R. Brooks,  G. K. L. Chan,  D. M. Chipman,  C. J. Cramer,  
 W. A. Goddard III,  M. S. Gordon,  W. J. Hehre,  A. Klamt,  
 H. F. Schaefer III,  M. W. Schmidt,  C. D. Sherrill,  D. G. Truhlar,  
 A. Warshel,  X. Xu,  A. Aspuru-Guzik,  R. Baer,  A. T. Bell,  N. A. Besley,  
 J.-D. Chai,  A. Dreuw,  B. D. Dunietz,  T. R. Furlani,  S. R. Gwaltney,  
 C.-P. Hsu,  Y. Jung,  J. Kong,  D. S. Lambrecht,  W. Liang,  C. Ochsenfeld,  
 V. A. Rassolov,  L. V. Slipchenko,  J. E. Subotnik,  T. Van Voorhis,  
 J. M. Herbert,  A. I. Krylov,  P. M. W. Gill,  M. Head-Gordon

 Contributors to earlier versions of Q-Chem not listed above: 
 R. D. Adamson,  J. Baker,  E. F. C. Byrd,  A. K. Chakraborty,  C.-L. Cheng,  
 H. Dachsel,  R. J. Doerksen,  G. Hawkins,  A. Heyden,  S. Hirata,  
 G. Kedziora,  F. J. Keil,  C. Kelley,  P. P. Korambath,  W. Kurlancheek,  
 A. M. Lee,  M. S. Lee,  D. Liotard,  I. Lotan,  P. E. Maslen,  N. Nair,  
 D. Neuhauser,  R. Olson,  B. Peters,  J. Ritchie,  N. E. Schultz,  
 N. Shenvi,  A. C. Simmonett,  K. S. Thanthiriwatte,  Q. Wu,  W. Zhang

 Please cite Q-Chem as follows:
 Y. Shao et al., Mol. Phys. 113, 184-215 (2015)
 DOI: 10.1080/00268976.2014.952696

 Q-Chem 4.4.2 for Intel X86 Linux

 Parts of Q-Chem use Armadillo 5.200.1 (Boston Tea Smuggler).
 http://arma.sourceforge.net/

 Q-Chem begins on Mon Oct 15 01:21:39 2018  

Host: 
0

     Scratch files written to /tmpu/cab_g/afmv_a/scratch_qchem/qchem50663//
 Dec716 11556_ 22328  22283 4050   
Processing $rem in /tmpu/appuserlic/qchem4.4/serial-multicore/config/preferences.
 MEM_TOTAL  2000 
FILE_GEOM_ORG=        593

Checking the input file for inconsistencies... 	...done.

--------------------------------------------------------------
User input:
--------------------------------------------------------------
$comment
SP
$end

$rem
MEM_STATIC 5000
MEM_TOTAL 20000
JOBTYPE SP
EXCHANGE B3LYP
BASIS 6-31g(d,p)
$end

$molecule
0 1
O          11.485000     -6.349000      8.764000
C          10.119000     -6.397000      8.205000
H           9.569000     -7.278000      8.560000
H          10.177000     -6.203000      7.127000
H           9.612000     -5.487000      8.549000
O          11.836000     -8.611000      8.237000
C          12.232000     -7.491000      8.600000
C          13.616000     -7.351000      9.178000
H          13.859000     -8.274000      9.719000
H          13.579000     -6.527000      9.901000
C          14.708000     -6.903000      8.103000
H          14.643000     -7.594000      7.254000
H          14.414000     -5.922000      7.710000
C          16.135000     -7.053000      8.662000
H          16.182000     -6.292000      9.451000
H          16.124000     -8.115000      8.938000
C          17.126000     -6.820000      7.586000
C          17.328000     -8.072000      6.808000
C          18.197000     -9.059000      7.390000
H          18.579000     -8.983000      8.404000
C          18.469000    -10.219000      6.654000
H          19.048000    -11.054000      7.037000
C          18.051000    -10.350000      5.307000
H          18.335000    -11.264000      4.794000
C          17.154000     -9.387000      4.774000
H          16.847000     -9.379000      3.732000
C          16.756000     -8.295000      5.539000
H          16.025000     -7.614000      5.114000
C          22.181000     -4.911000      6.994000
C          21.260000     -4.600000      4.727000
C          20.978000     -0.035000      5.199000
C          19.273000     -2.768000     10.617000
C          17.544000     -0.093000      5.903000
C          21.364000     -5.372000      5.943000
C          18.063000     -0.451000      9.469000
C          22.655000     -1.565000      5.890000
C          17.233000     -4.023000      5.054000
C          17.973000     -2.862000     10.132000
C          17.287000     -5.479000      6.987000
C          16.523000     -3.393000      6.083000
C          16.565000     -2.163000      8.582000
C          17.961000      0.310000      8.231000
C          19.183000     -5.469000      5.225000
C          19.689000      0.767000      6.747000
C          18.291000     -5.949000      7.965000
C          18.452000     -5.128000      9.193000
C          18.851000      0.397000      5.666000
C          22.087000     -1.008000      9.339000
C          21.932000      0.178000      7.474000
C          22.747000     -0.907000      7.144000
C          22.824000     -2.932000      5.721000
C          19.730000     -4.946000      9.561000
C          17.770000     -5.193000      5.590000
C          21.949000     -3.401000      4.701000
C          17.319000     -1.687000      9.644000
C          19.896000     -4.628000      4.350000
C          16.464000     -2.035000      6.118000
C          21.429000     -3.246000     10.008000
C          21.784000     -1.129000      4.935000
C          16.497000     -4.210000      7.229000
C          22.949000     -3.090000      8.119000
C          16.489000     -1.390000      7.365000
C          18.003000     -3.144000      4.210000
C          20.127000      0.436000      9.107000
C          19.420000     -0.395000      9.922000
C          17.883000     -1.744000      4.219000
C          20.181000     -3.810000     10.249000
C          17.569000     -4.006000      9.422000
C          21.334000     -1.824000     10.181000
C          19.708000     -6.049000      7.530000
C          19.996000     -2.310000      3.705000
C          16.696000     -3.534000      8.460000
C          17.051000     -1.146000      5.170000
C          22.230000     -3.892000      8.967000
C          19.670000     -0.119000      4.656000
C          22.919000     -3.705000      6.895000
C          21.037000      0.528000      6.468000
C          19.300000     -3.479000      3.862000
C          19.167000     -1.212000      3.995000
C          20.121000     -5.916000      6.165000
C          20.506000     -5.511000      8.582000
C          21.464000      0.103000      8.787000
C          21.296000     -2.245000      4.161000
C          17.139000     -0.201000      7.206000
C          20.009000     -1.566000     10.497000
C          19.259000      0.838000      8.059000
C          21.761000     -5.030000      8.280000
C          22.888000     -1.676000      8.300000
O          13.068000     10.631000     12.330000
C          14.181000     11.504000     12.174000
H          14.834000     11.361000     13.044000
H          13.781000     12.526000     12.165000
H          14.581000     11.208000     11.197000
O          14.439000      8.767000     12.332000
C          13.294000      9.241000     12.245000
C          12.019000      8.406000     12.215000
H          11.489000      8.676000     11.294000
H          11.358000      8.800000     12.997000
C          12.362000      6.899000     12.401000
H          12.961000      6.629000     11.523000
H          13.084000      6.867000     13.227000
C          11.187000      5.851000     12.607000
H          11.543000      5.065000     13.285000
H          10.342000      6.347000     13.101000
C          10.705000      5.192000     11.330000
C          10.108000      6.176000     10.276000
C          10.963000      6.650000      9.264000
H          11.990000      6.322000      9.131000
C          10.583000      7.636000      8.410000
H          11.321000      8.058000      7.734000
C           9.228000      8.090000      8.416000
H           8.901000      8.844000      7.706000
C           8.313000      7.519000      9.362000
H           7.253000      7.751000      9.335000
C           8.755000      6.573000     10.315000
H           8.041000      6.058000     10.951000
C           7.265000      1.355000      9.448000
C           8.833000      1.650000      7.657000
C          10.975000     -2.306000      8.131000
C           9.805000      0.308000     13.743000
C          13.696000     -0.936000      9.805000
C           8.117000      2.207000      8.752000
C          12.087000     -1.101000     13.092000
C           8.670000     -1.759000      8.302000
C          12.522000      2.819000      9.036000
C          10.998000      0.987000     13.753000
C          11.325000      3.887000     10.755000
C          13.171000      2.493000     10.193000
C          12.947000      1.081000     12.601000
C          12.842000     -1.632000     12.024000
C          10.134000      3.245000      8.611000
C          12.095000     -2.750000     10.043000
C          10.006000      3.841000     11.512000
C           9.954000      2.955000     12.699000
C          12.929000     -1.965000      9.200000
C           8.505000     -2.252000     11.728000
C           9.701000     -3.181000     10.004000
C           8.526000     -2.490000      9.497000
C           7.959000     -0.571000      8.124000
C           8.798000      2.183000     12.675000
C          11.377000      3.545000      9.264000
C           8.790000      0.281000      7.381000
C          12.146000      0.296000     13.390000
C          10.075000      2.306000      7.599000
C          13.754000      1.256000     10.351000
C           7.864000     -0.094000     12.615000
C           9.831000     -1.674000      7.642000
C          12.456000      3.071000     11.263000
C           7.055000     -0.756000     10.428000
C          13.673000      0.552000     11.517000
C          12.470000      1.878000      7.996000
C          10.846000     -2.670000     12.074000
C          10.872000     -1.761000     13.157000
C          13.134000      0.608000      8.123000
C           8.682000      0.899000     13.186000
C          11.108000      2.247000     13.211000
C           8.467000     -1.376000     12.776000
C           8.799000      3.398000     10.729000
C          11.181000      0.271000      7.013000
C          12.331000      2.349000     12.532000
C          13.748000      0.341000      9.319000
C           7.044000      0.171000     11.434000
C          12.234000     -1.666000      8.012000
C           7.147000     -0.049000      9.160000
C          10.952000     -3.034000      9.325000
C          11.243000      1.629000      7.322000
C          12.334000     -0.372000      7.489000
C           8.897000      3.175000      9.340000
C           8.014000      2.459000     11.499000
C           9.663000     -2.959000     11.353000
C           9.942000     -0.409000      7.103000
C          13.632000     -0.793000     11.209000
C           9.665000     -1.042000     13.442000
C          12.059000     -2.619000     11.450000
C           7.243000      1.441000     10.818000
C           7.741000     -2.000000     10.540000
$end

--------------------------------------------------------------
 ----------------------------------------------------------------
             Standard Nuclear Orientation (Angstroms)
    I     Atom           X                Y                Z
 ----------------------------------------------------------------
    1      O       1.0795287054    -6.2278027011     0.0331265499
    2      C       0.2934308977    -7.1190605485    -0.8434866408
    3      H       0.3250761381    -8.1588904794    -0.4935748040
    4      H       0.5528208118    -6.8989911863    -1.8862571565
    5      H      -0.7403341801    -6.7535154405    -0.8089679779
    6      O       2.8877317381    -7.7270936496     0.0230050771
    7      C       2.3735487923    -6.6242587485     0.2727170696
    8      C       3.1102567233    -5.6513445896     1.1558022658
    9      H       3.6844016118    -6.2231665605     1.8954212762
   10      H       2.3516597352    -5.0638539650     1.6872713389
   11      C       3.9621475298    -4.5760260867     0.3392453657
   12      H       4.6044597962    -5.1223666607    -0.3617923862
   13      H       3.2692159805    -3.9967887773    -0.2833106618
   14      C       4.9140671951    -3.7981293316     1.2666264035
   15      H       4.2344447746    -3.2075527834     1.8936700274
   16      H       5.4722068280    -4.6306708572     1.7132758839
   17      C       5.8251159428    -2.9526166192     0.4608693481
   18      C       6.9833455414    -3.7622711060    -0.0044862245
   19      C       8.0377235614    -3.9850479292     0.9477277630
   20      H       7.9513920097    -3.7145927986     1.9962013609
   21      C       9.1770731898    -4.6805777226     0.5241705286
   22      H       9.9900222901    -4.9652946015     1.1853853645
   23      C       9.3750402616    -5.0058646197    -0.8401210360
   24      H      10.3023865001    -5.5115175638    -1.0922421458
   25      C       8.2998127673    -4.8209572716    -1.7488355720
   26      H       8.3976527543    -4.9780529225    -2.8192678648
   27      C       7.1018508485    -4.2590635249    -1.3184222141
   28      H       6.2864279315    -4.1884982665    -2.0317615518
   29      C       8.5012812753     1.7607768414     0.8729751585
   30      C       8.3503874153     1.4832840852    -1.5733444880
   31      C       5.1948895186     4.7997412211    -2.0040161605
   32      C       3.9464235962     1.4393124290     3.1805657102
   33      C       2.5217985585     2.5412073476    -2.2160196074
   34      C       8.5203377975     0.9177036385    -0.2555085248
   35      C       2.0046999548     2.4851973937     1.3677427897
   36      C       7.1343832466     4.6716085663    -0.6428930574
   37      C       4.9751648078    -0.6534910943    -2.4091980534
   38      C       3.2133155534     0.5524764306     2.3994539962
   39      C       5.3051639619    -1.7995990580    -0.3028082286
   40      C       3.7524115376    -0.6543801663    -1.7274982296
   41      C       2.2473244513     0.2400815855     0.4391388044
   42      C       1.8498226642     3.0442839302     0.0314777451
   43      C       7.2232576672    -0.5264460029    -1.4858373219
   44      C       3.2848290301     4.5453019356    -1.0100551047
   45      C       6.0162408728    -1.5509755168     0.9691807499
   46      C       5.2453577058    -0.8552626369     2.0320395042
   47      C       3.2421383833     3.7597609867    -2.1885320566
   48      C       5.3039696990     4.6292587803     2.3863422818
   49      C       5.0453700575     5.5010911815     0.3659758572
   50      C       6.4054855797     5.1970899104     0.4555246902
   51      C       8.1492231633     3.7333244557    -0.5182581055
   52      C       5.9449939089     0.0888901219     2.6808204775
   53      C       5.9156654533    -1.2274890418    -1.5544759394
   54      C       8.1214780748     2.8461052087    -1.6309387505
   55      C       2.1699591276     1.0541359516     1.5590790241
   56      C       7.4966430726     0.6029745484    -2.2801575586
   57      C       2.8646559749     0.3513966880    -1.9492480441
   58      C       5.9927726487     2.4668770728     3.2458914936
   59      C       6.5334072597     4.4810017074    -1.8525454407
   60      C       3.8776275531    -1.3353519504    -0.5019047494
   61      C       7.5883147138     3.6163240434     1.8189807815
   62      C       2.0973663793     0.8243342221    -0.8725606404
   63      C       5.2568477259     0.5405666149    -3.1660057707
   64      C       3.0688987462     4.4962069623     1.4028205233
   65      C       2.8124496048     3.3801907099     2.1399613254
   66      C       4.3071996554     1.5405299353    -3.4356776084
   67      C       5.3593971751     1.2289373890     3.2505657662
   68      C       3.8447587223    -0.5630349621     1.8224220584
   69      C       4.9965388264     3.4945722054     3.1345412094
   70      C       7.2404861396    -0.7098086195     0.9413279651
   71      C       6.3467761120     2.4699805085    -3.2757697914
   72      C       3.2224074702    -0.7270085553     0.5992505333
   73      C       3.0400232078     1.4396059836    -2.8540357886
   74      C       7.2950554062     2.5139188308     2.5792246410
   75      C       4.4679462570     3.9173109379    -2.8440395469
   76      C       8.3263751000     3.1625484552     0.7575404478
   77      C       4.4957390220     5.2306176414    -0.8831481514
   78      C       6.5112938094     1.1216554594    -3.1008998703
   79      C       4.9810152137     2.7763004816    -3.4092248124
   80      C       7.8842335198    -0.3010650041    -0.2711079991
   81      C       7.1600538405     0.1803321357     2.0522429399
   82      C       4.3423680060     5.1034863432     1.5045348184
   83      C       7.1067481221     3.3354206634    -2.5170755960
   84      C       1.8878485329     2.1587448972    -1.0647907687
   85      C       3.7790798502     2.8373898515     3.0453784652
   86      C       2.5200100375     4.2842817159     0.1116424273
   87      C       7.8685219970     1.3608129309     2.0061130875
   88      C       6.6191402763     4.6593160253     1.7254573337
   89      O      -9.3151729215     7.7311851214     0.8328027699
   90      C      -8.9959624498     9.1179640984     0.8192844953
   91      H      -8.7064161844     9.3974619372     1.8399714788
   92      H      -9.9107721474     9.6490295444     0.5266111119
   93      H      -8.2192673694     9.1762596194     0.0476036129
   94      O      -7.1772532169     7.1724607531     1.5192919663
   95      C      -8.2711142995     6.8089554968     1.0560405654
   96      C      -8.6730201738     5.3538419809     0.8442238423
   97      H      -8.9354981928     5.2521368397    -0.2153998427
   98      H      -9.6382075166     5.2104555843     1.3457562286
   99      C      -7.5568944722     4.4077926387     1.3757763423
  100      H      -6.6828369210     4.6099959831     0.7451241365
  101      H      -7.2717771351     4.8180900426     2.3529908246
  102      C      -7.8291673465     2.8452668074     1.4515754738
  103      H      -7.3000293791     2.4466465723     2.3264074117
  104      H      -8.9004637629     2.6719318041     1.6139206766
  105      C      -7.3751470989     2.0708117230     0.2303388312
  106      C      -8.0831999307     2.4797038318    -1.0989652840
  107      C      -7.4387209386     3.4217730163    -1.9217638501
  108      H      -6.4513831308     3.8291651427    -1.7237797380
  109      C      -8.0531521762     3.9644321221    -3.0052339000
  110      H      -7.5664211611     4.7812819673    -3.5301655615
  111      C      -9.3159675677     3.4485875958    -3.4311196968
  112      H      -9.7944433966     3.8421085340    -4.3231663057
  113      C      -9.9237559295     2.3956837771    -2.6694315350
  114      H     -10.8261050956     1.8984095200    -3.0109535631
  115      C      -9.3198581668     1.9202575136    -1.4829382312
  116      H      -9.7195883303     1.0484486773    -0.9733480532
  117      C      -6.9243359892    -3.0170910221    -1.7716871426
  118      C      -5.4099670060    -1.7331677803    -3.1176283343
  119      C      -1.5756848134    -3.4237008493    -1.4137639002
  120      C      -5.7810042383    -2.3359880803     3.1500732427
  121      C      -0.9674959121    -0.6857318777     0.6396842172
  122      C      -6.6128356445    -1.7961071793    -2.3619328462
  123      C      -3.0584112596    -1.9427805977     3.3725172757
  124      C      -3.6356834287    -4.4795497781    -1.9458012526
  125      C      -3.8846359682     1.4773038495    -1.0577350992
  126      C      -5.3364753799    -1.0525758517     3.3491640397
  127      C      -5.9447676610     1.4808185376     0.0755076177
  128      C      -3.5751812727     1.6044836028     0.2667229415
  129      C      -3.6219742619     0.2998725534     2.7442589001
  130      C      -1.8516725940    -1.8357974639     2.6479854254
  131      C      -5.7444311684     0.2941127283    -2.1558542113
  132      C      -1.0880538415    -3.1103506336     0.7705684183
  133      C      -7.1088255140     0.5797982853     0.4602904392
  134      C      -6.9728736789    -0.1721280331     1.7302482772
  135      C      -0.7025623589    -1.9477768646     0.0479007572
  136      C      -4.5219266377    -5.0715827170     1.3514430474
  137      C      -2.5463310671    -4.9686640856     0.1886606530
  138      C      -3.6641093590    -5.1712268456    -0.7194665508
  139      C      -4.8251061089    -4.0140012100    -2.5089062327
  140      C      -7.3290953660    -1.5030176559     1.5438752062
  141      C      -5.2316014861     1.2977439879    -1.2663667118
  142      C      -4.5141551931    -2.8049461103    -3.1492259138
  143      C      -3.9666909938    -0.8399435521     3.4242122959
  144      C      -4.8945701281    -0.4340370851    -2.9663355877
  145      C      -2.4421944075     1.0201744289     0.7862857891
  146      C      -6.5888216656    -3.8486823346     1.6465254061
  147      C      -2.6403760958    -3.6524230927    -2.2863460502
  148      C      -4.7824191593     1.5591196201     0.9952336101
  149      C      -6.0859059035    -4.8056019083    -0.5230539692
  150      C      -2.4324886174     0.3903862406     1.9966599609
  151      C      -3.0197326015     0.7529623187    -1.8926342027
  152      C      -2.6764501261    -3.9097578229     2.3609480550
  153      C      -3.5539669335    -3.2279742886     3.2355802435
  154      C      -1.7980920735     0.1959434777    -1.3756724719
  155      C      -6.7840664628    -2.5807085604     2.2256074184
  156      C      -5.8614357305     0.0037981900     2.6406765560
  157      C      -5.4146368586    -4.4549328674     2.1820665629
  158      C      -7.4671533480    -0.5067667717    -0.5180574234
  159      C      -2.6601480891    -1.2749788643    -2.8767137404
  160      C      -4.8257011561     0.8841699519     2.2951719218
  161      C      -1.5624164659     0.3449408124    -0.0336747811
  162      C      -6.9772596099    -4.1311729354     0.2656919535
  163      C      -1.0190978556    -2.1241119016    -1.3131581078
  164      C      -6.0576415773    -4.1632841787    -1.8279547556
  165      C      -1.5179406015    -4.0358080209    -0.1575237096
  166      C      -3.5457338205    -0.2005698534    -2.8069126693
  167      C      -1.5781195328    -1.0485650657    -2.0121994287
  168      C      -6.8255747185    -0.5721505332    -1.7721530442
  169      C      -7.6997574301    -1.7542264772     0.1751854085
  170      C      -3.1313213966    -4.8644978238     1.4205148263
  171      C      -3.1686190551    -2.5916590745    -2.9926080934
  172      C      -1.5399787267    -0.6606512107     1.9309608673
  173      C      -4.9593634951    -3.4542800638     3.0662249938
  174      C      -1.6338085282    -3.0767225220     2.0740740654
  175      C      -7.4207552856    -3.0079785999    -0.4917399382
  176      C      -4.8596063652    -5.3281095801    -0.0192175124
 ----------------------------------------------------------------
 Molecular Point Group                 C1    NOp =  1
 Largest Abelian Subgroup              C1    NOp =  1
 Nuclear Repulsion Energy = 34219.9698858505 hartrees
 There are      462 alpha and      462 beta electrons
 Requested basis set is 6-31G(d,p)
 There are 676 shells and 2360 basis functions

 Total QAlloc Memory Limit  20000 MB
 Mega-Array Size      4888 MB
 MEM_STATIC part      5000 MB
 A cutoff of  1.0D-08 yielded  37118 shell pairs
 There are    522010 function pairs
 
 -------------------------------------------------------
 OpenMP Integral Computing Module                       
 Release: version 1.0, May 2013, Q-Chem Inc. Pittsburgh 
 -------------------------------------------------------
 Integral Job Info:
 Integral job number is                      11
 Integral operator is                         1
 short-range coefficients                     0
 long-range coefficients              100000000
 Omega coefficients                           0
 if combine SR and LR in K                    0
 Integral screening is                        0
 Integral computing path is                   2
 max size of driver memory is            800000
 size of driver memory is                593474
 size of scratch memory is              2260544
 max col of scratch BK array               1296
 max len of scratch array in speh3          155
 max len of scratch index in speh4           18
 max int batch size is                      520
 min int batch size is                       52
 fixed nKL is                                52
 max L of basis functions is                  2
 order of int derivative is                   0
 number of shells is                        676
 number of basis is                        2360
 number of cartesian basis is              2360
 number of contracted shell pairs         37118
 number of primitive shell pairs         112889
 maxK2 (contraction) of shell pair           36
 max number of K2 of shell pair               1
 max number of CS2 of shell pair           7087
 max number of PS2 of shell pair          34158
 mem total for path MDJ                 1480328
 -------------------------------------------------------
 Smallest overlap matrix eigenvalue = 2.44E-04

 Scale SEOQF with 1.000000e-02/1.000000e-02/1.000000e-01

 Standard Electronic Orientation quadrupole field applied
 Nucleus-field energy     =    -0.0000001682 hartrees
 Guess from superposition of atomic densities
 Warning:  Energy on first SCF cycle will be non-variational
 A restricted hybrid HF-DFT SCF calculation will be
 performed using Pulay DIIS extrapolation
 Exchange:     0.2000 Hartree-Fock + 0.0800 Slater + 0.7200 B88
 Correlation:  0.1900 VWN1RPA + 0.8100 LYP
 Using SG-1 standard quadrature grid
 SCF converges when DIIS error is below 1.0E-05
 using 16 threads for integral computing 
 -------------------------------------------------------
 OpenMP BLAS3 based DFT computing Module                
 Release: version 1.0, May 2013, Q-Chem Inc. Pittsburgh 
 -------------------------------------------------------
 ---------------------------------------
  Cycle       Energy         DIIS Error
 ---------------------------------------
    1   -5858.6957738541      1.84E-02
    2   -5803.0553733946      1.30E-03
    3   -5802.1523582681      1.85E-03
    4   -5803.9085387381      6.71E-04
    5   -5804.1584375821      2.94E-04
    6   -5804.2119243236      1.32E-04
    7   -5804.2231239628      4.37E-05
    8   -5804.2239403407      2.54E-05
    9   -5804.2243808750      9.57E-06 Convergence criterion met
 ---------------------------------------
 SCF time:  CPU 8069.86 s  wall 835.30 s
 SCF   energy in the final basis set = -5804.2243808750
 Total energy in the final basis set = -5804.2243808750
 
 --------------------------------------------------------------
 
                    Orbital Energies (a.u.)
 --------------------------------------------------------------
 
 Alpha MOs
 -- Occupied --
-19.195 -19.182 -19.140 -19.129 -10.322 -10.312 -10.243 -10.242
-10.241 -10.241 -10.240 -10.239 -10.233 -10.232 -10.232 -10.231
-10.230 -10.228 -10.227 -10.226 -10.225 -10.225 -10.224 -10.223
-10.223 -10.222 -10.222 -10.222 -10.221 -10.221 -10.221 -10.220
-10.219 -10.219 -10.219 -10.218 -10.218 -10.218 -10.218 -10.218
-10.218 -10.218 -10.217 -10.217 -10.217 -10.217 -10.217 -10.217
-10.217 -10.216 -10.216 -10.216 -10.216 -10.216 -10.216 -10.216
-10.216 -10.216 -10.215 -10.215 -10.215 -10.215 -10.215 -10.215
-10.215 -10.215 -10.215 -10.215 -10.215 -10.215 -10.214 -10.214
-10.214 -10.214 -10.214 -10.214 -10.214 -10.214 -10.214 -10.214
-10.213 -10.213 -10.213 -10.213 -10.213 -10.213 -10.213 -10.212
-10.212 -10.212 -10.212 -10.212 -10.212 -10.212 -10.212 -10.212
-10.211 -10.211 -10.211 -10.211 -10.211 -10.211 -10.211 -10.211
-10.210 -10.210 -10.210 -10.210 -10.210 -10.209 -10.209 -10.209
-10.209 -10.209 -10.209 -10.208 -10.208 -10.208 -10.208 -10.208
-10.208 -10.208 -10.208 -10.207 -10.207 -10.207 -10.207 -10.207
-10.206 -10.206 -10.206 -10.206 -10.206 -10.204 -10.204 -10.203
-10.203 -10.201 -10.201 -10.201 -10.200 -10.200 -10.199 -10.198
-10.198 -10.198 -10.197 -10.195  -1.078  -1.078  -1.001  -0.996
 -0.985  -0.985  -0.970  -0.968  -0.965  -0.965  -0.962  -0.961
 -0.940  -0.933  -0.931  -0.929  -0.927  -0.925  -0.925  -0.924
 -0.921  -0.921  -0.900  -0.899  -0.893  -0.892  -0.888  -0.886
 -0.880  -0.873  -0.854  -0.852  -0.842  -0.841  -0.840  -0.838
 -0.838  -0.835  -0.824  -0.821  -0.803  -0.799  -0.799  -0.798
 -0.797  -0.796  -0.795  -0.794  -0.793  -0.792  -0.783  -0.781
 -0.772  -0.771  -0.770  -0.768  -0.767  -0.765  -0.763  -0.761
 -0.757  -0.752  -0.741  -0.740  -0.736  -0.731  -0.718  -0.717
 -0.715  -0.714  -0.713  -0.713  -0.712  -0.711  -0.709  -0.709
 -0.708  -0.706  -0.706  -0.702  -0.702  -0.699  -0.676  -0.673
 -0.660  -0.660  -0.657  -0.656  -0.648  -0.647  -0.635  -0.632
 -0.629  -0.628  -0.626  -0.625  -0.623  -0.622  -0.619  -0.615
 -0.615  -0.614  -0.613  -0.612  -0.611  -0.611  -0.610  -0.607
 -0.606  -0.605  -0.602  -0.600  -0.567  -0.565  -0.564  -0.563
 -0.560  -0.560  -0.558  -0.557  -0.554  -0.554  -0.553  -0.548
 -0.537  -0.537  -0.536  -0.533  -0.529  -0.529  -0.527  -0.526
 -0.524  -0.524  -0.519  -0.518  -0.517  -0.516  -0.513  -0.512
 -0.507  -0.507  -0.498  -0.496  -0.493  -0.492  -0.489  -0.487
 -0.486  -0.483  -0.482  -0.481  -0.478  -0.478  -0.476  -0.475
 -0.473  -0.472  -0.470  -0.469  -0.468  -0.467  -0.467  -0.466
 -0.465  -0.465  -0.464  -0.464  -0.462  -0.460  -0.459  -0.459
 -0.458  -0.456  -0.455  -0.454  -0.451  -0.448  -0.446  -0.445
 -0.442  -0.441  -0.440  -0.439  -0.438  -0.436  -0.436  -0.433
 -0.432  -0.431  -0.430  -0.428  -0.428  -0.426  -0.426  -0.424
 -0.424  -0.422  -0.422  -0.421  -0.420  -0.420  -0.419  -0.419
 -0.418  -0.418  -0.417  -0.417  -0.414  -0.414  -0.412  -0.412
 -0.411  -0.410  -0.410  -0.406  -0.402  -0.399  -0.396  -0.396
 -0.393  -0.392  -0.390  -0.389  -0.388  -0.388  -0.384  -0.383
 -0.380  -0.376  -0.375  -0.372  -0.371  -0.368  -0.368  -0.367
 -0.365  -0.364  -0.362  -0.362  -0.362  -0.361  -0.358  -0.357
 -0.356  -0.355  -0.354  -0.353  -0.352  -0.351  -0.351  -0.350
 -0.350  -0.348  -0.347  -0.347  -0.347  -0.347  -0.343  -0.343
 -0.342  -0.342  -0.341  -0.339  -0.338  -0.337  -0.335  -0.333
 -0.333  -0.331  -0.331  -0.330  -0.329  -0.327  -0.325  -0.324
 -0.307  -0.307  -0.296  -0.292  -0.289  -0.287  -0.271  -0.271
 -0.270  -0.269  -0.268  -0.267  -0.266  -0.266  -0.264  -0.263
 -0.261  -0.261  -0.260  -0.259  -0.259  -0.257  -0.256  -0.254
 -0.248  -0.247  -0.245  -0.243  -0.222  -0.222  -0.212  -0.210
 -0.209  -0.208  -0.207  -0.206  -0.201  -0.195
 -- Virtual --
 -0.123  -0.122  -0.120  -0.119  -0.110  -0.109  -0.078  -0.076
 -0.075  -0.073  -0.061  -0.056  -0.055  -0.053  -0.026  -0.025
 -0.022  -0.021  -0.020  -0.018  -0.017  -0.017  -0.015  -0.012
 -0.010  -0.010  -0.009  -0.008  -0.007  -0.006  -0.002   0.002
  0.005   0.011   0.036   0.038   0.040   0.043   0.046   0.047
  0.048   0.050   0.053   0.059   0.059   0.063   0.066   0.068
  0.069   0.071   0.079   0.084   0.086   0.090   0.092   0.093
  0.095   0.096   0.101   0.102   0.103   0.104   0.106   0.109
  0.112   0.114   0.115   0.116   0.117   0.118   0.119   0.121
  0.123   0.125   0.126   0.128   0.128   0.130   0.133   0.136
  0.139   0.142   0.145   0.145   0.148   0.154   0.155   0.156
  0.157   0.157   0.161   0.163   0.164   0.165   0.166   0.169
  0.172   0.173   0.174   0.176   0.177   0.179   0.179   0.182
  0.184   0.185   0.186   0.187   0.189   0.189   0.190   0.191
  0.193   0.194   0.196   0.198   0.201   0.203   0.204   0.205
  0.206   0.207   0.212   0.215   0.216   0.217   0.219   0.219
  0.221   0.221   0.223   0.223   0.225   0.226   0.226   0.227
  0.229   0.230   0.234   0.235   0.236   0.236   0.237   0.240
  0.241   0.244   0.246   0.247   0.248   0.249   0.254   0.257
  0.259   0.263   0.272   0.273   0.273   0.277   0.278   0.280
  0.283   0.284   0.287   0.289   0.290   0.292   0.297   0.303
  0.304   0.308   0.310   0.310   0.311   0.313   0.317   0.318
  0.320   0.322   0.324   0.326   0.331   0.332   0.333   0.335
  0.335   0.336   0.338   0.343   0.348   0.349   0.350   0.352
  0.352   0.359   0.361   0.363   0.367   0.371   0.385   0.387
  0.395   0.398   0.399   0.403   0.404   0.406   0.408   0.409
  0.410   0.412   0.414   0.416   0.418   0.419   0.425   0.427
  0.431   0.431   0.432   0.437   0.438   0.440   0.446   0.449
  0.450   0.452   0.454   0.455   0.460   0.461   0.462   0.463
  0.466   0.468   0.472   0.473   0.474   0.475   0.477   0.478
  0.478   0.480   0.481   0.482   0.482   0.484   0.484   0.487
  0.488   0.488   0.488   0.490   0.491   0.493   0.495   0.496
  0.497   0.498   0.500   0.501   0.501   0.503   0.503   0.505
  0.506   0.508   0.510   0.511   0.511   0.512   0.512   0.513
  0.514   0.515   0.516   0.517   0.518   0.519   0.519   0.520
  0.521   0.522   0.523   0.524   0.524   0.525   0.526   0.526
  0.528   0.529   0.530   0.531   0.532   0.532   0.533   0.534
  0.534   0.535   0.536   0.537   0.537   0.539   0.539   0.540
  0.541   0.542   0.542   0.544   0.545   0.546   0.547   0.548
  0.549   0.549   0.549   0.551   0.551   0.552   0.552   0.553
  0.553   0.554   0.555   0.555   0.556   0.556   0.557   0.559
  0.559   0.560   0.560   0.561   0.563   0.563   0.564   0.564
  0.566   0.566   0.567   0.568   0.569   0.570   0.570   0.572
  0.573   0.574   0.574   0.574   0.574   0.576   0.576   0.577
  0.578   0.579   0.580   0.582   0.582   0.583   0.584   0.585
  0.586   0.586   0.587   0.587   0.588   0.589   0.590   0.591
  0.592   0.593   0.594   0.595   0.596   0.597   0.599   0.599
  0.600   0.601   0.602   0.602   0.603   0.603   0.604   0.606
  0.609   0.609   0.610   0.611   0.612   0.613   0.616   0.617
  0.618   0.619   0.620   0.621   0.622   0.624   0.625   0.626
  0.627   0.628   0.628   0.630   0.630   0.633   0.634   0.634
  0.634   0.635   0.636   0.637   0.638   0.639   0.639   0.640
  0.641   0.642   0.643   0.644   0.645   0.646   0.648   0.650
  0.650   0.651   0.651   0.653   0.653   0.654   0.655   0.657
  0.658   0.659   0.659   0.659   0.660   0.662   0.664   0.664
  0.665   0.666   0.667   0.667   0.668   0.668   0.669   0.671
  0.671   0.672   0.673   0.674   0.674   0.675   0.676   0.679
  0.680   0.680   0.682   0.682   0.684   0.686   0.688   0.689
  0.690   0.691   0.692   0.693   0.695   0.695   0.696   0.697
  0.699   0.700   0.701   0.704   0.704   0.705   0.706   0.706
  0.706   0.708   0.709   0.711   0.711   0.714   0.715   0.717
  0.718   0.719   0.720   0.720   0.723   0.723   0.724   0.725
  0.726   0.727   0.728   0.730   0.731   0.732   0.734   0.735
  0.735   0.737   0.739   0.741   0.742   0.744   0.746   0.747
  0.750   0.751   0.751   0.753   0.754   0.756   0.756   0.758
  0.759   0.760   0.763   0.763   0.764   0.765   0.766   0.767
  0.768   0.770   0.771   0.774   0.774   0.775   0.776   0.777
  0.779   0.779   0.781   0.781   0.782   0.783   0.785   0.786
  0.788   0.789   0.789   0.790   0.793   0.794   0.795   0.796
  0.796   0.799   0.800   0.801   0.802   0.802   0.804   0.804
  0.807   0.807   0.808   0.809   0.810   0.810   0.811   0.812
  0.812   0.813   0.814   0.815   0.816   0.816   0.817   0.817
  0.818   0.819   0.819   0.820   0.822   0.823   0.823   0.825
  0.825   0.827   0.828   0.828   0.829   0.831   0.833   0.834
  0.836   0.837   0.837   0.838   0.840   0.844   0.846   0.847
  0.848   0.849   0.852   0.853   0.858   0.861   0.864   0.867
  0.868   0.869   0.874   0.876   0.879   0.880   0.885   0.886
  0.887   0.889   0.893   0.898   0.899   0.902   0.908   0.908
  0.911   0.913   0.916   0.916   0.919   0.921   0.924   0.926
  0.928   0.929   0.931   0.932   0.933   0.934   0.935   0.937
  0.938   0.940   0.943   0.946   0.947   0.949   0.951   0.953
  0.954   0.955   0.956   0.959   0.961   0.962   0.966   0.967
  0.971   0.972   0.974   0.978   0.983   0.986   0.987   0.988
  0.990   0.992   0.993   0.994   1.000   1.001   1.004   1.005
  1.006   1.008   1.009   1.011   1.013   1.014   1.015   1.017
  1.019   1.022   1.024   1.025   1.025   1.029   1.030   1.031
  1.033   1.035   1.036   1.038   1.039   1.040   1.042   1.043
  1.044   1.046   1.047   1.052   1.053   1.054   1.054   1.058
  1.059   1.059   1.063   1.064   1.066   1.067   1.069   1.070
  1.071   1.073   1.074   1.076   1.078   1.080   1.082   1.084
  1.086   1.088   1.088   1.089   1.091   1.092   1.094   1.095
  1.096   1.099   1.101   1.101   1.103   1.104   1.107   1.108
  1.112   1.113   1.115   1.117   1.119   1.122   1.123   1.127
  1.130   1.130   1.131   1.135   1.139   1.141   1.143   1.144
  1.146   1.147   1.152   1.154   1.156   1.158   1.159   1.160
  1.161   1.163   1.165   1.166   1.167   1.169   1.169   1.172
  1.172   1.173   1.174   1.177   1.179   1.179   1.181   1.183
  1.185   1.187   1.188   1.190   1.190   1.192   1.195   1.196
  1.199   1.199   1.202   1.205   1.207   1.209   1.210   1.213
  1.215   1.217   1.220   1.224   1.229   1.235   1.236   1.241
  1.246   1.248   1.250   1.252   1.253   1.256   1.257   1.258
  1.262   1.262   1.263   1.267   1.268   1.271   1.272   1.272
  1.275   1.276   1.277   1.280   1.283   1.284   1.285   1.289
  1.292   1.292   1.298   1.300   1.302   1.305   1.306   1.307
  1.312   1.313   1.316   1.318   1.321   1.323   1.326   1.329
  1.330   1.332   1.334   1.338   1.340   1.342   1.345   1.348
  1.350   1.352   1.354   1.358   1.359   1.361   1.362   1.363
  1.363   1.368   1.369   1.372   1.375   1.377   1.379   1.381
  1.382   1.384   1.387   1.392   1.396   1.398   1.400   1.401
  1.403   1.406   1.412   1.413   1.415   1.418   1.420   1.424
  1.424   1.426   1.437   1.438   1.442   1.442   1.444   1.445
  1.448   1.452   1.453   1.457   1.458   1.460   1.461   1.462
  1.464   1.466   1.467   1.468   1.472   1.472   1.474   1.476
  1.476   1.479   1.480   1.482   1.482   1.485   1.486   1.489
  1.491   1.494   1.500   1.502   1.503   1.507   1.509   1.511
  1.515   1.516   1.520   1.524   1.527   1.534   1.537   1.538
  1.541   1.542   1.544   1.547   1.549   1.550   1.551   1.556
  1.559   1.560   1.564   1.567   1.570   1.571   1.573   1.574
  1.578   1.579   1.581   1.582   1.586   1.586   1.588   1.593
  1.598   1.599   1.602   1.605   1.610   1.611   1.615   1.618
  1.625   1.627   1.630   1.633   1.636   1.636   1.641   1.644
  1.646   1.650   1.651   1.652   1.655   1.659   1.662   1.665
  1.674   1.679   1.681   1.683   1.687   1.688   1.692   1.697
  1.700   1.701   1.703   1.705   1.707   1.709   1.712   1.716
  1.718   1.720   1.723   1.724   1.726   1.727   1.729   1.731
  1.733   1.734   1.735   1.738   1.740   1.743   1.744   1.746
  1.749   1.750   1.752   1.753   1.754   1.755   1.757   1.758
  1.759   1.759   1.762   1.763   1.765   1.766   1.768   1.769
  1.771   1.772   1.773   1.774   1.776   1.778   1.779   1.781
  1.782   1.783   1.784   1.785   1.786   1.786   1.788   1.789
  1.791   1.792   1.794   1.795   1.795   1.797   1.798   1.800
  1.800   1.801   1.802   1.803   1.806   1.807   1.808   1.809
  1.810   1.812   1.813   1.815   1.817   1.818   1.820   1.823
  1.825   1.826   1.830   1.831   1.834   1.838   1.840   1.840
  1.842   1.845   1.846   1.849   1.850   1.852   1.854   1.859
  1.860   1.861   1.862   1.865   1.866   1.867   1.868   1.869
  1.870   1.871   1.873   1.875   1.876   1.880   1.883   1.884
  1.885   1.887   1.891   1.893   1.895   1.895   1.897   1.899
  1.903   1.903   1.908   1.909   1.913   1.915   1.917   1.921
  1.922   1.923   1.926   1.927   1.930   1.934   1.935   1.937
  1.940   1.941   1.943   1.944   1.945   1.946   1.948   1.949
  1.951   1.953   1.955   1.957   1.957   1.959   1.960   1.962
  1.964   1.970   1.972   1.973   1.975   1.976   1.977   1.980
  1.982   1.984   1.986   1.987   1.989   1.990   1.991   1.993
  1.994   1.995   1.997   1.999   2.000   2.002   2.002   2.005
  2.006   2.008   2.011   2.012   2.012   2.013   2.014   2.016
  2.017   2.019   2.019   2.022   2.023   2.023   2.024   2.026
  2.027   2.028   2.029   2.030   2.033   2.034   2.035   2.036
  2.037   2.038   2.039   2.041   2.042   2.043   2.045   2.046
  2.046   2.048   2.050   2.050   2.052   2.052   2.054   2.055
  2.056   2.058   2.059   2.060   2.062   2.065   2.065   2.067
  2.068   2.069   2.070   2.070   2.072   2.072   2.074   2.075
  2.077   2.078   2.079   2.082   2.083   2.085   2.087   2.089
  2.090   2.092   2.094   2.095   2.096   2.098   2.101   2.102
  2.104   2.106   2.108   2.109   2.110   2.114   2.116   2.117
  2.121   2.122   2.125   2.127   2.129   2.134   2.135   2.138
  2.141   2.147   2.150   2.151   2.153   2.159   2.162   2.168
  2.173   2.182   2.184   2.187   2.193   2.195   2.196   2.207
  2.208   2.208   2.212   2.212   2.218   2.221   2.224   2.228
  2.232   2.232   2.235   2.237   2.239   2.240   2.244   2.248
  2.250   2.252   2.253   2.257   2.258   2.259   2.260   2.264
  2.265   2.266   2.267   2.267   2.275   2.276   2.278   2.280
  2.282   2.284   2.286   2.288   2.292   2.294   2.295   2.298
  2.302   2.304   2.310   2.311   2.312   2.316   2.319   2.319
  2.322   2.322   2.325   2.326   2.328   2.329   2.332   2.337
  2.340   2.342   2.345   2.347   2.349   2.351   2.352   2.353
  2.356   2.358   2.360   2.362   2.365   2.367   2.369   2.371
  2.372   2.373   2.374   2.377   2.379   2.380   2.382   2.383
  2.385   2.387   2.388   2.390   2.392   2.393   2.395   2.395
  2.398   2.400   2.401   2.403   2.403   2.406   2.409   2.410
  2.412   2.413   2.416   2.417   2.418   2.421   2.422   2.426
  2.427   2.427   2.433   2.436   2.439   2.440   2.445   2.446
  2.449   2.452   2.453   2.454   2.456   2.457   2.459   2.462
  2.463   2.465   2.468   2.470   2.473   2.476   2.479   2.479
  2.482   2.484   2.486   2.486   2.491   2.492   2.493   2.496
  2.497   2.497   2.499   2.501   2.502   2.504   2.505   2.506
  2.507   2.508   2.509   2.513   2.514   2.516   2.517   2.522
  2.523   2.525   2.526   2.528   2.530   2.533   2.534   2.539
  2.542   2.544   2.545   2.547   2.548   2.553   2.556   2.561
  2.565   2.568   2.577   2.578   2.580   2.583   2.584   2.588
  2.589   2.590   2.592   2.595   2.598   2.598   2.601   2.601
  2.603   2.605   2.606   2.606   2.609   2.611   2.614   2.616
  2.618   2.621   2.624   2.625   2.625   2.627   2.629   2.631
  2.633   2.634   2.637   2.637   2.638   2.642   2.643   2.645
  2.648   2.649   2.650   2.651   2.652   2.654   2.656   2.658
  2.658   2.660   2.662   2.663   2.665   2.667   2.671   2.672
  2.673   2.674   2.675   2.676   2.681   2.681   2.683   2.685
  2.686   2.689   2.692   2.694   2.695   2.697   2.699   2.704
  2.704   2.708   2.712   2.713   2.716   2.720   2.722   2.725
  2.726   2.728   2.731   2.731   2.737   2.739   2.742   2.743
  2.744   2.746   2.748   2.749   2.754   2.756   2.759   2.760
  2.764   2.765   2.766   2.767   2.771   2.775   2.776   2.777
  2.781   2.783   2.784   2.785   2.788   2.789   2.790   2.794
  2.799   2.799   2.801   2.805   2.807   2.814   2.818   2.820
  2.822   2.823   2.828   2.830   2.834   2.838   2.842   2.843
  2.844   2.845   2.851   2.853   2.855   2.856   2.857   2.860
  2.862   2.866   2.867   2.868   2.870   2.872   2.873   2.874
  2.876   2.878   2.880   2.881   2.886   2.887   2.887   2.890
  2.891   2.895   2.896   2.900   2.901   2.904   2.905   2.906
  2.910   2.910   2.912   2.916   2.916   2.919   2.920   2.921
  2.921   2.922   2.924   2.927   2.930   2.931   2.932   2.933
  2.937   2.937   2.940   2.945   2.947   2.951   2.952   2.954
  2.958   2.960   2.963   2.965   2.967   2.971   2.974   2.978
  2.983   2.985   2.990   2.992   2.993   2.996   2.997   2.999
  3.006   3.007   3.012   3.017   3.019   3.019   3.022   3.027
  3.028   3.033   3.034   3.037   3.038   3.043   3.043   3.045
  3.046   3.048   3.051   3.054   3.056   3.063   3.067   3.068
  3.076   3.077   3.079   3.082   3.084   3.090   3.093   3.101
  3.105   3.116   3.122   3.126   3.135   3.144   3.144   3.145
  3.148   3.153   3.157   3.165   3.173   3.183   3.188   3.194
  3.206   3.208   3.212   3.225   3.226   3.229   3.237   3.240
  3.244   3.247   3.249   3.256   3.263   3.265   3.277   3.286
  3.288   3.291   3.306   3.312   3.321   3.324   3.332   3.337
  3.338   3.343   3.344   3.346   3.352   3.354   3.362   3.368
  3.371   3.383   3.406   3.415   3.422   3.427   3.445   3.448
  3.450   3.462   3.470   3.471   3.482   3.483   3.484   3.490
  3.494   3.498   3.499   3.509   3.520   3.526   3.538   3.549
  3.560   3.563   3.568   3.583   3.588   3.589   3.595   3.608
  3.611   3.638   3.688   3.698   3.841   3.844   3.989   3.990
  4.063   4.069   4.077   4.084   4.085   4.094   4.095   4.096
  4.101   4.104   4.106   4.109   4.113   4.116   4.117   4.119
  4.121   4.124   4.124   4.126   4.133   4.139   4.145   4.149
  4.152   4.157   4.163   4.165   4.166   4.172   4.176   4.178
  4.182   4.185   4.192   4.198   4.201   4.202   4.211   4.232
  4.237   4.240   4.243   4.244   4.248   4.250   4.253   4.258
  4.261   4.264   4.270   4.271   4.279   4.284   4.286   4.291
  4.296   4.300   4.302   4.312   4.374   4.380   4.388   4.392
  4.394   4.398   4.401   4.403   4.408   4.411   4.413   4.414
  4.416   4.423   4.429   4.431   4.432   4.435   4.451   4.475
  4.475   4.485   4.501   4.506   4.529   4.532   4.547   4.548
  4.551   4.566   4.585   4.618   4.620   4.631   4.637   4.638
  4.645   4.647   4.678   4.681   4.695   4.696   4.699   4.700
  4.703   4.705   4.710   4.717   4.740   4.766   4.788   4.820
  4.832   4.850   4.868   4.868   4.873   4.876   4.883   4.893
  4.895   4.917   4.960   4.967   4.968   4.970   4.988   4.992
  4.995   4.996   5.004   5.007   5.145   5.175   5.181   5.195
  5.197   5.205   5.215   5.219   5.326   5.331   5.339   5.344
  5.363   5.375
 --------------------------------------------------------------
 
          Ground-State Mulliken Net Atomic Charges

     Atom                 Charge (a.u.)
  ----------------------------------------
      1 O                    -0.471006
      2 C                    -0.094702
      3 H                     0.143977
      4 H                     0.127380
      5 H                     0.121844
      6 O                    -0.484211
      7 C                     0.597334
      8 C                    -0.246244
      9 H                     0.128438
     10 H                     0.121497
     11 C                    -0.208864
     12 H                     0.114474
     13 H                     0.116585
     14 C                    -0.178721
     15 H                     0.109618
     16 H                     0.121528
     17 C                     0.043824
     18 C                     0.058926
     19 C                    -0.096394
     20 H                     0.097089
     21 C                    -0.090895
     22 H                     0.090314
     23 C                    -0.083561
     24 H                     0.093102
     25 C                    -0.094938
     26 H                     0.094479
     27 C                    -0.094496
     28 H                     0.096955
     29 C                     0.028930
     30 C                    -0.027154
     31 C                    -0.025053
     32 C                    -0.029268
     33 C                     0.005267
     34 C                    -0.011719
     35 C                    -0.022807
     36 C                     0.045099
     37 C                    -0.018807
     38 C                    -0.012685
     39 C                    -0.067324
     40 C                     0.007687
     41 C                     0.006780
     42 C                    -0.012133
     43 C                     0.004323
     44 C                     0.012117
     45 C                    -0.096814
     46 C                     0.019189
     47 C                     0.016339
     48 C                    -0.020575
     49 C                    -0.017327
     50 C                     0.008576
     51 C                    -0.032667
     52 C                     0.048708
     53 C                     0.024539
     54 C                     0.016542
     55 C                    -0.018042
     56 C                     0.000652
     57 C                     0.018114
     58 C                     0.000252
     59 C                    -0.009286
     60 C                     0.008658
     61 C                     0.026238
     62 C                    -0.008515
     63 C                     0.008855
     64 C                     0.009290
     65 C                     0.017924
     66 C                    -0.004578
     67 C                    -0.004798
     68 C                     0.004614
     69 C                    -0.004039
     70 C                     0.027721
     71 C                    -0.023220
     72 C                     0.003477
     73 C                    -0.045679
     74 C                    -0.029190
     75 C                    -0.007160
     76 C                    -0.015935
     77 C                     0.023092
     78 C                     0.021173
     79 C                     0.020987
     80 C                    -0.001892
     81 C                    -0.006541
     82 C                     0.019272
     83 C                    -0.003984
     84 C                     0.021823
     85 C                     0.011969
     86 C                    -0.032238
     87 C                    -0.011693
     88 C                    -0.011616
     89 O                    -0.491143
     90 C                    -0.066057
     91 H                     0.129735
     92 H                     0.120968
     93 H                     0.122577
     94 O                    -0.474374
     95 C                     0.594474
     96 C                    -0.269868
     97 H                     0.147218
     98 H                     0.135071
     99 C                    -0.183907
    100 H                     0.117738
    101 H                     0.124673
    102 C                    -0.187486
    103 H                     0.112016
    104 H                     0.110711
    105 C                     0.016571
    106 C                     0.068208
    107 C                    -0.085318
    108 H                     0.096758
    109 C                    -0.096010
    110 H                     0.094489
    111 C                    -0.089334
    112 H                     0.094026
    113 C                    -0.098722
    114 H                     0.094113
    115 C                    -0.103138
    116 H                     0.100763
    117 C                     0.010868
    118 C                    -0.015339
    119 C                    -0.018101
    120 C                     0.009641
    121 C                    -0.002615
    122 C                     0.005824
    123 C                     0.000089
    124 C                     0.016246
    125 C                     0.006679
    126 C                     0.011930
    127 C                    -0.073875
    128 C                     0.025332
    129 C                    -0.000403
    130 C                    -0.007188
    131 C                     0.003138
    132 C                     0.022026
    133 C                    -0.084384
    134 C                     0.048820
    135 C                    -0.019115
    136 C                     0.010858
    137 C                    -0.041846
    138 C                    -0.008865
    139 C                    -0.021602
    140 C                    -0.004616
    141 C                     0.016982
    142 C                     0.006997
    143 C                    -0.010381
    144 C                    -0.011987
    145 C                     0.015823
    146 C                    -0.011449
    147 C                     0.015917
    148 C                     0.017151
    149 C                     0.016375
    150 C                     0.014211
    151 C                    -0.024785
    152 C                     0.000415
    153 C                    -0.018277
    154 C                    -0.018023
    155 C                     0.019873
    156 C                    -0.006961
    157 C                    -0.006766
    158 C                    -0.011842
    159 C                    -0.007452
    160 C                    -0.031112
    161 C                     0.025313
    162 C                    -0.025826
    163 C                    -0.005024
    164 C                    -0.025580
    165 C                     0.021636
    166 C                     0.018633
    167 C                     0.004747
    168 C                     0.035569
    169 C                    -0.016472
    170 C                     0.030762
    171 C                     0.007487
    172 C                    -0.012040
    173 C                    -0.016941
    174 C                    -0.001090
    175 C                    -0.001472
    176 C                    -0.001464
  ----------------------------------------
  Sum of atomic charges =     0.000000

 -----------------------------------------------------------------
                    Cartesian Multipole Moments
 -----------------------------------------------------------------
    Charge (ESU x 10^10)
                 0.0000
    Dipole Moment (Debye)
         X      -2.9207      Y       1.7580      Z      -1.5480
       Tot       3.7440
    Quadrupole Moments (Debye-Ang)
        XX    -754.8292     XY     -26.1658     YY    -817.0868
        XZ      10.6821     YZ      -9.2748     ZZ    -802.1055
    Octopole Moments (Debye-Ang^2)
       XXX    -402.3140    XXY     122.6434    XYY    -270.5601
       YYY     383.3716    XXZ     -59.7631    XYZ      45.6568
       YYZ     -81.4576    XZZ     -45.8042    YZZ     -17.9927
       ZZZ     -22.3286
    Hexadecapole Moments (Debye-Ang^3)
      XXXX -148848.6688   XXXY   -5913.0286   XXYY  -33408.9582
      XYYY   -2673.9184   YYYY  -57644.7649   XXXZ     734.0852
      XXYZ    -415.6688   XYYZ     349.6456   YYYZ    -173.9088
      XXZZ  -28351.5369   XYZZ   -1025.2930   YYZZ  -12357.7066
      XZZZ      68.5962   YZZZ      22.6514   ZZZZ  -18306.3270
 -----------------------------------------------------------------
Archival summary:
1\1\mn251\SP\ProcedureUnspecified\6-31G**\428\afmv_a\MonOct1501:35:502018MonOct1501:35:502018\0\\#,ProcedureUnspecified,6-31G**,\\0,1\O\C,1,1.37443\O,2,1.24217,1,127.645\C,1,1.47673,2,115.504,3,12.4677,0\H,4,1.09685,1,108.504,2,80.8774,0\H,4,1.09703,1,106.37,2,-171.507,0\H,4,1.09758,1,111.542,2,-52.2394,0\C,2,1.50637,1,112.107,3,168.43,0\H,8,1.09685,2,106.963,1,-20.328,0\H,8,1.09711,2,108.332,1,-136.904,0\C,8,1.59649,2,113.338,1,94.7099,0\H,11,1.09659,8,107.695,2,52.6654,0\H,11,1.09693,8,107.992,2,-61.0311,0\C,11,1.53991,8,111.228,2,168.333,0\H,14,1.0972,11,103.484,8,67.6489,0\H,14,1.09733,11,100.154,8,-56.1099,0\C,14,1.48126,11,109.935,8,-171.842,0\C,17,1.4775,14,120.675,11,-67.5668,0\C,18,1.47831,17,61.1341,14,-103.05,0\C,19,1.48564,18,118.39,17,-120.506,0\C,20,1.42582,19,107.001,18,-136.401,0\C,21,1.37107,20,111.442,19,6.97384,0\C,22,1.34232,21,106.692,20,-1.41318,0\C,21,1.37753,20,118.679,19,156.489,0\C,24,1.35807,21,121.329,20,-8.04342,0\C,22,1.40258,21,120.134,20,145.57,0\C,26,1.39057,22,122.145,21,2.30738,0\C,25,1.40876,24,119.896,21,4.53104,0\C,28,1.37487,25,122.231,24,-1.76091,0\C,29,1.40116,28,111.758,25,-138.306,0\C,30,1.40758,29,105.578,28,-1.62361,0\C,31,1.38332,30,119.823,29,141.777,0\C,32,1.36953,31,122.037,30,-141.413,0\C,33,1.37919,32,118.773,31,6.01455,0\C,32,1.38403,31,121.071,30,0.597531,0\C,35,1.40516,32,108.832,31,-149.085,0\C,36,1.39794,35,118.776,32,144.686,0\C,37,1.37446,36,118.493,35,-131.104,0\C,38,1.36876,37,109.944,36,139.394,0\C,39,1.36437,38,108.703,37,-5.84662,0\C,40,1.40416,39,107.776,38,1.12655,0\C,41,1.35973,40,118.741,39,-146.955,0\C,42,1.39994,41,119.365,40,143.549,0\C,43,1.39448,42,106.879,41,-147.376,0\C,33,1.40604,32,110.078,31,144.452,0\C,45,1.3728,33,120.333,32,-141.821,0\C,46,1.39897,45,115.264,33,136.541,0\C,42,1.40765,41,123.911,40,-5.48063,0\C,24,1.4096,21,118.566,20,-143.697,0\C,49,1.37086,24,110.202,21,142.351,0\C,50,1.37015,49,106.172,24,-0.917588,0\C,51,1.40884,50,119.975,49,-142.716,0\C,52,1.38774,51,116.565,50,5.1112,0\C,53,1.3641,52,107.9,51,141.313,0\C,54,1.38426,53,119.398,52,-150.527,0\C,55,1.38954,54,118.012,53,3.75024,0\C,56,1.39124,55,125.856,54,-6.73673,0\C,57,1.39593,56,118.553,55,139.708,0\C,58,1.38822,57,105.459,56,-140.172,0\C,59,1.3935,58,117.801,57,140.371,0\C,60,1.38638,59,123.038,58,0.717872,0\C,57,1.39655,56,113.579,55,4.89764,0\C,62,1.39556,57,106.938,56,141.49,0\C,56,1.39716,55,102.164,54,137.48,0\C,64,1.38249,56,119.893,55,-155.19,0\C,39,1.40976,38,119.407,37,-149.709,0\C,58,1.41452,57,121.133,56,3.00991,0\C,67,1.36185,58,118.844,57,-133.943,0\C,61,1.41453,60,111.007,59,-144.18,0\C,69,1.39071,61,120.946,60,140.408,0\C,70,1.40572,69,119.987,61,-136.767,0\C,71,1.38216,70,104.783,69,144.588,0\C,72,1.38264,71,109.697,70,0.380173,0\C,73,1.3867,72,110.881,71,1.39796,0\C,31,1.41542,30,109.535,29,-1.93346,0\C,75,1.38311,31,119.485,30,138.813,0\C,68,1.43171,67,109.061,58,142.582,0\C,17,1.48781,14,109.774,11,83.6796,0\C,78,1.40971,17,123.281,14,-102.622,0\H,79,1.0857,78,121.759,17,8.29268,0\C,79,1.39144,78,120.199,17,-169.626,0\H,81,1.08631,79,116.152,78,166.788,0\C,81,1.41988,79,120.437,78,-5.47458,0\H,83,1.08592,81,123.968,79,-174.738,0\C,83,1.41644,81,118.73,79,-3.63769,0\H,85,1.08589,83,114.939,81,-172.37,0\C,85,1.40046,83,121.27,81,10.6067,0\H,87,1.08623,85,118.702,83,177.038,0\C,6,2.72811,4,148.575,1,1.6357,0\C,89,1.36767,6,131.48,4,73.8845,0\C,90,1.40764,89,111.54,6,115.191,0\C,91,1.36643,90,123.312,89,148.066,0\C,92,1.41079,91,119.355,90,-6.886,0\C,93,1.39022,92,114.685,91,-137.199,0\C,94,1.37273,93,124.71,92,146.206,0\C,95,1.37603,94,121.301,93,-137.291,0\C,94,1.38588,93,104.211,92,3.25666,0\C,97,1.38681,94,118.369,93,146.475,0\C,95,1.38822,94,118.071,93,-2.50023,0\C,99,1.37126,95,110.399,94,-138.835,0\C,98,1.39029,97,125.261,94,1.53727,0\C,96,1.40256,95,109.086,94,140.2,0\C,97,1.40756,94,109.458,93,-2.44913,0\C,100,1.40783,99,121.949,95,142.432,0\C,104,1.36445,100,119.652,99,-139.407,0\C,105,1.3766,104,122.451,100,-1.37376,0\C,106,1.36606,105,120.854,104,138.614,0\C,107,1.3748,106,112.41,105,-140.533,0\C,105,1.37923,104,107.269,100,144.583,0\C,109,1.36734,105,110.72,104,1.40594,0\C,109,1.37066,105,121.71,104,-144.765,0\C,104,1.38042,100,121.507,99,1.17,0\C,107,1.40349,106,119.026,105,0.788936,0\C,106,1.41075,105,119.72,104,0.149343,0\C,112,1.41147,104,117.837,100,0.424098,0\C,115,1.38446,112,120.061,104,-138.141,0\C,116,1.36504,115,109.857,112,138.894,0\C,115,1.4116,112,120.839,104,-1.96472,0\C,118,1.38421,115,109.004,112,-141.449,0\C,116,1.41354,115,117.668,112,-0.447208,0\C,120,1.37936,116,121.071,115,141.249,0\C,121,1.39862,120,108.88,116,-141.575,0\C,122,1.39545,121,121.427,120,137.974,0\C,123,1.33819,122,120.641,121,0.615292,0\C,123,1.37952,122,119.095,121,-138.522,0\C,125,1.37131,123,108.336,122,146.613,0\C,124,1.3959,123,108.963,122,-146.957,0\C,126,1.39721,125,120.478,123,-144.284,0\C,128,1.4058,126,118.441,125,-2.06231,0\C,129,1.37814,128,121.859,126,2.12054,0\C,129,1.38179,128,108.942,126,142.207,0\C,130,1.39409,129,119.037,128,-3.86161,0\C,132,1.40337,130,109.548,129,146.978,0\C,133,1.39927,132,119.457,130,-143.151,0\C,124,1.40823,123,122.698,122,0.842279,0\C,135,1.39434,124,120.658,123,-140.626,0\C,134,1.40846,133,118.445,132,136.411,0\C,127,1.41602,124,120.832,123,145.393,0\C,128,1.42195,126,121.361,125,134.113,0\C,139,1.3752,128,108.626,126,-140.612,0\C,139,1.39148,128,116.978,126,6.51878,0\C,141,1.37287,139,118.073,128,-138.352,0\C,140,1.4102,139,119.541,128,147.843,0\C,136,1.42502,135,121.266,124,-0.466802,0\C,144,1.36802,136,122.522,135,135.459,0\C,98,1.44007,97,115.646,94,-144.459,0\C,101,1.48212,98,110.322,97,-148.236,0\C,114,1.48428,106,110.601,105,146.973,0\C,147,1.53197,101,129.668,98,-153.381,0\C,149,1.5157,147,115.368,101,13.1968,0\H,150,1.0973,149,109.326,147,80.0035,0\H,150,1.09737,149,108.197,147,-36.4097,0\C,149,1.56063,147,117.498,101,153.237,0\C,153,1.40707,149,117.755,147,124.513,0\H,154,1.08628,153,124.113,149,-4.38648,0\C,154,1.35864,153,121.776,149,171.402,0\H,156,1.08614,154,118.891,153,-171.95,0\C,153,1.41058,149,121.716,147,-54.7524,0\H,158,1.08606,153,120.885,149,12.4596,0\C,158,1.41368,153,118.008,149,-176.903,0\H,160,1.08543,158,117.719,153,-174.34,0\C,156,1.42905,154,119.546,153,8.29071,0\H,162,1.08607,156,120.218,154,177.086,0\C,150,1.58788,149,114.392,147,-157.115,0\H,164,1.09662,150,110.216,149,28.565,0\H,164,1.09754,150,111.71,149,143.234,0\C,164,1.55669,150,119.432,149,-93.4143,0\H,167,1.09638,164,116.442,150,66.9758,0\H,167,1.09712,164,113.281,150,-51.7317,0\C,167,1.52439,164,110.098,150,-171.554,0\O,170,1.24228,167,124.283,164,-3.63552,0\O,170,1.41082,167,114.009,164,168.994,0\C,172,1.42311,170,118.197,167,171.273,0\H,173,1.09642,172,102.556,170,-56.0171,0\H,173,1.09716,172,107.374,170,67.8542,0\H,173,1.09753,172,106.684,170,-174.052,0\\\@

 Total job time:  850.79s(wall), 8096.78s(cpu) 
 Mon Oct 15 01:35:50 2018

        *************************************************************
        *                                                           *
        *  Thank you very much for using Q-Chem.  Have a nice day.  *
        *                                                           *
        *************************************************************


