
Running Job 1 of 1 ./6/12.qcin
qchem ./6/12.qcin_50734.0 /tmpu/cab_g/afmv_a/scratch_qchem/qchem50734/ 1
/tmpu/appuserlic/qchem4.4/serial-multicore/exe/qcprog.exe_s ./6/12.qcin_50734.0 /tmpu/cab_g/afmv_a/scratch_qchem/qchem50734/
Check license passed

                  Welcome to Q-Chem
     A Quantum Leap Into The Future Of Chemistry


 Q-Chem 4.4, Q-Chem, Inc., Pleasanton, CA (2016)

 Y. Shao,  Z. Gan,  E. Epifanovsky,  A. T. B. Gilbert,  M. Wormit,  
 J. Kussmann,  A. W. Lange,  A. Behn,  J. Deng,  X. Feng,  D. Ghosh,  
 M. Goldey,  P. R. Horn,  L. D. Jacobson,  I. Kaliman,  F. Rob,  
 R. Z. Khaliullin,  T. Kus,  A. Landau,  J. Liu,  E. I. Proynov,  Y. M. Rhee,  
 R. M. Richard,  M. A. Rohrdanz,  R. P. Steele,  E. J. Sundstrom,  
 H. L. Woodcock III,  P. M. Zimmerman,  D. Zuev,  B. Albrecht,  E. Alguire,  
 B. Austin,  S. A. Baeppler,  G. J. O. Beran,  Y. A. Bernard,  E. Berquist,  
 K. Brandhorst,  K. B. Bravaya,  S. T. Brown,  D. Casanova,  C.-M. Chang,  
 Y. Chen,  S. H. Chien,  K. D. Closser,  M. P. Coons,  D. L. Crittenden,  
 S. Dasgupta,  M. Diedenhofen,  R. A. DiStasio Jr.,  H. Do,  A. D. Dutoi,  
 R. G. Edgar,  P.-T. Fang,  S. Fatehi,  Q. Feng,  L. Fusti-Molnar,  
 A. Ghysels,  A. Golubeva-Zadorozhnaya,  J. Gomes,  A. Gunina,  
 M. W. D. Hanson-Heine,  P. H. P. Harbach,  A. W. Hauser,  J. E. Herr,  
 E. G. Hohenstein,  Z. C. Holden,  K. Hui,  T.-C. Jagau,  H. Ji,  B. Kaduk,  
 K. Khistyaev,  Jaehoon Kim,  Jihan Kim,  R. A. King,  P. Klunzinger,  
 K. Koh,  D. Kosenkov,  T. Kowalczyk,  C. M. Krauter,  A. Kunitsa,  
 K. U. Lao,  A. Laurent,  K. V. Lawler,  J. Lee,  D. Lefrancois,  S. Lehtola,  
 S. V. Levchenko,  C. Y. Lin,  Y.-S. Lin,  F. Liu,  E. Livshits,  
 R. C. Lochan,  A. Luenser,  P. Manohar,  S. F. Manzer,  S.-P. Mao,  Y. Mao,  
 N. Mardirossian,  A. V. Marenich,  L. A. Martinez-Martinez,  S. A. Maurer,  
 N. J. Mayhall,  J.-M. Mewes,  A. F. Morrison,  K. Nanda,  T. S. Nguyen-Beck,  
 C. M. Oana,  R. Olivares-Amaya,  D. P. O'Neill,  J. A. Parkhill,  
 T. M. Perrine,  R. Peverati,  P. A. Pieniazek,  F. Plasser,  A. Prociuk,  
 D. R. Rehn,  E. Rosta,  N. J. Russ,  N. Sergueev,  S. M. Sharada,  
 S. Sharma,  D. W. Small,  A. Sodt,  T. Stauch,  T. Stein,  D. Stuck,  
 Y.-C. Su,  A. J. W. Thom,  T. Tsuchimochi,  L. Vogt,  O. Vydrov,  T. Wang,  
 M. A. Watson,  J. Wenzel,  A. White,  C. F. Williams,  V. Vanovschi,  
 K. Yao,  S. Yeganeh,  S. R. Yost,  Z.-Q. You,  I. Y. Zhang,  X. Zhang,  
 Y. Zhao,  B. R. Brooks,  G. K. L. Chan,  D. M. Chipman,  C. J. Cramer,  
 W. A. Goddard III,  M. S. Gordon,  W. J. Hehre,  A. Klamt,  
 H. F. Schaefer III,  M. W. Schmidt,  C. D. Sherrill,  D. G. Truhlar,  
 A. Warshel,  X. Xu,  A. Aspuru-Guzik,  R. Baer,  A. T. Bell,  N. A. Besley,  
 J.-D. Chai,  A. Dreuw,  B. D. Dunietz,  T. R. Furlani,  S. R. Gwaltney,  
 C.-P. Hsu,  Y. Jung,  J. Kong,  D. S. Lambrecht,  W. Liang,  C. Ochsenfeld,  
 V. A. Rassolov,  L. V. Slipchenko,  J. E. Subotnik,  T. Van Voorhis,  
 J. M. Herbert,  A. I. Krylov,  P. M. W. Gill,  M. Head-Gordon

 Contributors to earlier versions of Q-Chem not listed above: 
 R. D. Adamson,  J. Baker,  E. F. C. Byrd,  A. K. Chakraborty,  C.-L. Cheng,  
 H. Dachsel,  R. J. Doerksen,  G. Hawkins,  A. Heyden,  S. Hirata,  
 G. Kedziora,  F. J. Keil,  C. Kelley,  P. P. Korambath,  W. Kurlancheek,  
 A. M. Lee,  M. S. Lee,  D. Liotard,  I. Lotan,  P. E. Maslen,  N. Nair,  
 D. Neuhauser,  R. Olson,  B. Peters,  J. Ritchie,  N. E. Schultz,  
 N. Shenvi,  A. C. Simmonett,  K. S. Thanthiriwatte,  Q. Wu,  W. Zhang

 Please cite Q-Chem as follows:
 Y. Shao et al., Mol. Phys. 113, 184-215 (2015)
 DOI: 10.1080/00268976.2014.952696

 Q-Chem 4.4.2 for Intel X86 Linux

 Parts of Q-Chem use Armadillo 5.200.1 (Boston Tea Smuggler).
 http://arma.sourceforge.net/

 Q-Chem begins on Mon Oct 15 01:35:51 2018  

Host: 
0

     Scratch files written to /tmpu/cab_g/afmv_a/scratch_qchem/qchem50734//
 Dec716 11556_ 22328  22283 4050   
Processing $rem in /tmpu/appuserlic/qchem4.4/serial-multicore/config/preferences.
 MEM_TOTAL  2000 
FILE_GEOM_ORG=        593

Checking the input file for inconsistencies... 	...done.

--------------------------------------------------------------
User input:
--------------------------------------------------------------
$comment
SP
$end

$rem
MEM_STATIC 5000
MEM_TOTAL 20000
JOBTYPE SP
EXCHANGE B3LYP
BASIS 6-31g(d,p)
$end

$molecule
0 1
O         -11.217000    -12.433000    -10.831000
C         -10.356000    -13.568000    -10.865000
H          -9.623000    -13.462000    -10.057000
H          -9.872000    -13.649000    -11.846000
H         -10.865000    -14.456000    -10.470000
O         -12.383000    -12.885000    -12.720000
C         -12.172000    -12.198000    -11.788000
C         -12.848000    -10.915000    -11.536000
H         -12.113000    -10.236000    -11.087000
H         -13.616000    -11.053000    -10.766000
C         -13.629000    -10.326000    -12.722000
H         -12.879000     -9.834000    -13.352000
H         -14.069000    -11.102000    -13.360000
C         -14.728000     -9.295000    -12.232000
H         -14.268000     -8.522000    -11.603000
H         -15.176000     -8.808000    -13.107000
C         -15.932000    -10.017000    -11.471000
C         -16.668000    -11.079000    -12.314000
C         -17.831000    -10.828000    -13.027000
H         -18.379000     -9.902000    -12.884000
C         -18.501000    -11.906000    -13.714000
H         -19.487000    -11.816000    -14.160000
C         -17.939000    -13.160000    -13.817000
H         -18.499000    -13.898000    -14.383000
C         -16.865000    -13.433000    -13.016000
H         -16.387000    -14.408000    -13.024000
C         -16.235000    -12.454000    -12.284000
H         -15.357000    -12.688000    -11.689000
C         -20.605000     -9.223000     -8.562000
C         -19.726000    -11.317000     -7.663000
C         -18.196000     -9.783000     -3.665000
C         -16.972000     -5.682000     -8.269000
C         -14.838000     -9.488000     -4.691000
C         -19.922000    -10.466000     -8.738000
C         -15.275000     -6.100000     -6.097000
C         -20.247000     -9.308000     -4.896000
C         -15.665000    -11.583000     -8.041000
C         -15.768000     -6.309000     -8.501000
C         -15.903000    -10.160000     -9.952000
C         -14.701000    -10.552000     -7.969000
C         -14.366000     -7.815000     -7.597000
C         -15.051000     -7.057000     -5.073000
C         -17.885000    -11.472000     -9.012000
C         -16.609000     -8.168000     -3.598000
C         -16.842000     -9.161000    -10.525000
C         -16.750000     -7.746000    -10.150000
C         -15.900000     -9.398000     -3.775000
C         -19.362000     -6.008000     -5.704000
C         -18.947000     -7.447000     -3.986000
C         -20.076000     -7.923000     -4.726000
C         -20.676000     -9.790000     -6.130000
C         -17.988000     -7.199000     -9.898000
C         -16.452000    -11.361000     -9.188000
C         -20.096000    -11.011000     -6.352000
C         -14.906000     -6.555000     -7.391000
C         -18.470000    -11.980000     -7.807000
C         -14.289000    -10.024000     -6.701000
C         -19.196000     -5.999000     -8.103000
C         -19.319000    -10.167000     -4.379000
C         -14.911000     -9.613000     -9.031000
C         -20.769000     -7.476000     -7.032000
C         -13.996000     -8.674000     -6.572000
C         -16.221000    -12.005000     -6.873000
C         -17.093000     -6.137000     -4.770000
C         -16.534000     -5.542000     -5.883000
C         -15.848000    -11.482000     -5.621000
C         -18.047000     -6.133000     -8.963000
C         -15.633000     -7.271000     -9.408000
C         -18.775000     -5.533000     -6.875000
C         -18.334000     -9.403000    -10.266000
C         -18.003000    -11.907000     -5.431000
C         -14.740000     -8.265000     -8.875000
C         -14.830000    -10.522000     -5.539000
C         -20.158000     -6.973000     -8.186000
C         -16.944000    -10.359000     -3.823000
C         -20.933000     -8.877000     -7.208000
C         -18.016000     -8.397000     -3.464000
C         -17.642000    -12.247000     -6.715000
C         -16.881000    -11.418000     -4.731000
C         -18.775000    -10.531000     -9.573000
C         -18.984000     -8.155000     -9.954000
C         -18.467000     -6.343000     -4.667000
C         -19.245000    -11.262000     -5.237000
C         -14.373000     -8.308000     -5.299000
C         -17.365000     -5.315000     -6.981000
C         -16.154000     -7.032000     -4.209000
C         -20.119000     -8.069000     -9.135000
C         -20.410000     -6.979000     -5.741000
O         -17.377000    -12.772000     -1.885000
C         -18.610000    -13.357000     -2.345000
H         -18.917000    -14.127000     -1.628000
H         -18.368000    -13.732000     -3.347000
H         -19.460000    -12.673000     -2.461000
O         -17.980000    -12.416000      0.297000
C         -17.195000    -12.278000     -0.637000
C         -15.797000    -11.737000     -0.381000
H         -15.724000    -11.429000      0.669000
H         -15.760000    -10.827000     -0.992000
C         -14.700000    -12.683000     -0.965000
H         -14.883000    -13.630000     -0.443000
H         -14.790000    -13.013000     -2.007000
C         -13.335000    -12.024000     -0.667000
H         -13.420000    -11.052000     -1.168000
H         -13.276000    -11.763000      0.397000
C         -12.048000    -12.782000     -1.167000
C         -12.052000    -14.064000     -0.471000
C         -11.550000    -14.030000      0.812000
H         -10.963000    -13.152000      1.066000
C         -11.593000    -15.168000      1.619000
H         -11.087000    -15.300000      2.570000
C         -12.340000    -16.271000      1.218000
H         -12.357000    -17.152000      1.853000
C         -12.888000    -16.324000     -0.062000
H         -13.361000    -17.269000     -0.311000
C         -12.636000    -15.261000     -0.941000
H         -13.087000    -15.298000     -1.928000
C          -6.586000    -12.903000     -1.992000
C          -7.496000    -14.541000     -3.580000
C          -6.728000    -12.255000     -7.410000
C          -9.055000     -8.399000     -2.683000
C         -10.056000    -11.233000     -7.607000
C          -7.508000    -13.914000     -2.297000
C          -9.712000     -8.285000     -5.476000
C          -5.423000    -12.433000     -5.309000
C         -11.222000    -13.785000     -4.740000
C         -10.323000     -8.751000     -3.186000
C         -11.548000    -12.771000     -2.591000
C         -11.884000    -12.543000     -4.902000
C         -11.482000     -9.744000     -4.785000
C          -9.568000     -9.067000     -6.609000
C          -9.659000    -14.381000     -2.965000
C          -7.779000    -10.242000     -7.747000
C         -10.740000    -12.112000     -1.522000
C         -10.467000    -10.634000     -1.647000
C          -8.689000    -11.334000     -7.998000
C          -6.012000     -9.226000     -4.279000
C          -5.806000    -10.262000     -6.333000
C          -5.170000    -11.039000     -5.321000
C          -5.522000    -13.199000     -4.168000
C          -9.172000    -10.351000     -1.185000
C         -10.932000    -13.948000     -3.319000
C          -6.483000    -14.215000     -4.512000
C         -10.683000     -8.671000     -4.538000
C          -8.830000    -14.883000     -3.978000
C         -11.611000    -11.745000     -6.044000
C          -7.130000     -9.430000     -2.102000
C          -6.116000    -12.995000     -6.370000
C         -12.028000    -11.877000     -3.712000
C          -5.514000    -11.149000     -2.923000
C         -11.377000    -10.382000     -6.022000
C         -10.338000    -14.234000     -5.726000
C          -7.504000     -8.475000     -6.033000
C          -8.401000     -8.024000     -5.020000
C         -10.125000    -13.601000     -6.936000
C          -8.457000     -9.241000     -1.704000
C         -11.035000     -9.903000     -2.664000
C          -6.921000     -8.728000     -3.289000
C          -9.373000    -12.628000     -1.226000
C          -8.105000    -14.475000     -6.280000
C         -11.778000    -10.503000     -3.652000
C         -10.795000    -12.329000     -7.122000
C          -6.376000    -10.634000     -1.894000
C          -8.005000    -12.572000     -7.818000
C          -5.608000    -12.546000     -2.924000
C          -6.573000    -10.879000     -7.406000
C          -9.118000    -14.822000     -5.322000
C          -8.701000    -13.713000     -7.327000
C          -8.863000    -13.795000     -1.974000
C          -8.475000    -11.614000     -0.945000
C          -6.285000     -9.127000     -5.713000
C          -6.842000    -14.019000     -5.803000
C         -10.423000    -10.051000     -6.964000
C          -8.098000     -8.038000     -3.623000
C          -8.233000     -9.089000     -7.027000
C          -7.095000    -11.713000     -1.371000
C          -5.299000    -10.344000     -4.074000
$end

--------------------------------------------------------------
 ----------------------------------------------------------------
             Standard Nuclear Orientation (Angstroms)
    I     Atom           X                Y                Z
 ----------------------------------------------------------------
    1      O      -0.2963546902    -5.3721608519    -1.9143698260
    2      C      -1.3338261128    -5.7377057343    -2.8203124214
    3      H      -2.2769116786    -5.3303150423    -2.4381979887
    4      H      -1.3760450513    -6.8282639924    -2.9302134993
    5      H      -1.2854622179    -5.1322446954    -3.7339468473
    6      O       1.3763235319    -6.5547478542    -2.8817459407
    7      C       0.9916128420    -5.8290439069    -2.0388548055
    8      C       1.8172939644    -5.3520128864    -0.9175782607
    9      H       1.1707178463    -5.2878984949    -0.0340084172
   10      H       2.1361528216    -4.3214575456    -1.1126493214
   11      C       3.1405293762    -6.1022053478    -0.6945596160
   12      H       2.8734632549    -7.0105498325    -0.1422463137
   13      H       3.5813091896    -6.4610116142    -1.6325314808
   14      C       4.1716159644    -5.2194143446     0.1229992457
   15      H       3.7162655804    -4.8772695789     1.0612758505
   16      H       5.0497523365    -5.8300819751     0.3668425499
   17      C       4.7207913987    -3.9890321461    -0.7340812570
   18      C       5.4285519440    -4.3950274003    -2.0434444091
   19      C       6.8024386397    -4.5426205324    -2.1642360257
   20      H       7.4667787522    -4.2073564236    -1.3739960670
   21      C       7.3844441226    -4.8360849316    -3.4519088352
   22      H       8.4519136744    -4.8143589990    -3.6500217827
   23      C       6.6049377956    -5.1305134041    -4.5494746695
   24      H       7.1310460999    -5.3737947836    -5.4674203229
   25      C       5.2669213092    -4.8644049524    -4.4572565914
   26      H       4.5954831762    -5.0461336620    -5.2911141990
   27      C       4.6752891475    -4.5098168741    -3.2675491988
   28      H       3.6031014895    -4.3458116516    -3.2111496152
   29      C       7.8195625455     0.6271736473    -0.6002625285
   30      C       6.1311445501     1.1261874902    -2.2931617746
   31      C       3.5622861681     4.0156747480     0.1005570894
   32      C       5.4614235168    -0.7976289414     3.6696715348
   33      C       1.1279616930     1.6288469030     0.9910525626
   34      C       6.9671947705     0.2142654081    -1.6705381762
   35      C       2.9795396697     0.4390126355     3.9579200035
   36      C       5.9829151591     3.7781086981    -0.0775009354
   37      C       2.6694522186    -0.9623589661    -1.6931443570
   38      C       4.3395801666    -1.5067573087     3.3020121052
   39      C       4.0355500889    -2.6282574058    -0.6481309611
   40      C       2.0702072492    -1.3486256824    -0.4728392761
   41      C       2.3475655842    -1.2489425545     2.2939121815
   42      C       2.1119550259     1.2963793262     3.2320961657
   43      C       5.0351105366    -0.8805173402    -2.2227901542
   44      C       2.5751586241     3.3360717709     2.0227958897
   45      C       5.3538730730    -2.7713648104     0.0223880770
   46      C       5.4933405409    -2.5201155321     1.4606984140
   47      C       1.7039261785     2.9105848820     0.9707384136
   48      C       6.4118756798     2.5580785974     3.1864856493
   49      C       4.9660403087     3.9740476047     2.1381241420
   50      C       6.1294456963     3.8114745441     1.3202764153
   51      C       6.7357940141     2.8678320123    -0.8148548429
   52      C       6.6155715384    -1.7756122355     1.7464770514
   53      C       3.8851045070    -1.6626744018    -1.8196742123
   54      C       5.9980195900     2.4573082809    -1.8935967792
   55      C       3.0672548105    -0.8714288160     3.4169290090
   56      C       4.9183466908     0.4750414606    -2.6712771016
   57      C       1.3303865669    -0.4018835651     0.3099101868
   58      C       7.2519156367     0.3245188280     2.8891951726
   59      C       4.7340804756     3.8708875038    -0.6235394199
   60      C       2.9363808826    -2.2456903910     0.2333357343
   61      C       7.7971115078     2.0188144796     1.2659198701
   62      C       1.3779362082    -0.4570766864     1.6954363507
   63      C       2.5652135720     0.3444727060    -2.0575195554
   64      C       4.0138325113     2.4222990299     3.7044729764
   65      C       4.1385767666     1.1579992712     4.2441580614
   66      C       1.8646843031     1.2938358759    -1.2906230076
   67      C       6.5654284160    -0.9429443718     2.8946111447
   68      C       4.3393312329    -2.3505162570     2.2751777586
   69      C       6.5042582129     1.2333798172     3.6084733378
   70      C       6.4868351542    -1.8845686751    -0.5083647252
   71      C       3.5565905036     2.4113314370    -2.1563060211
   72      C       3.0788817942    -2.2237140151     1.5934429099
   73      C       1.1954507579     0.8955679422    -0.1252230269
   74      C       7.8689615058     0.6981235656     1.7227120413
   75      C       2.3816743484     3.3507667493    -0.1965911637
   76      C       7.6427034411     1.9775439783    -0.1465700925
   77      C       3.6885236680     4.0730445087     1.5057509565
   78      C       3.6775433528     1.1095554648    -2.5868019289
   79      C       2.4191124997     2.5404633399    -1.3332180900
   80      C       6.2904226643    -1.0320911578    -1.5954793541
   81      C       7.2559992821    -1.3635683143     0.5935849871
   82      C       5.1171469109     3.1163046615     3.2125639207
   83      C       4.7319326860     3.1020656819    -1.7852508270
   84      C       1.2823223592     0.8408497795     2.1458349309
   85      C       5.3739018073     0.5207006914     4.1195925607
   86      C       2.7278694778     2.5511535435     3.1324916910
   87      C       7.9343875277    -0.1375134380     0.5391714911
   88      C       7.0859724025     3.0102325109     2.0101929787
   89      O       1.3292244051     5.3640213254    -2.3425308479
   90      C       2.4399974492     5.5023193276    -3.2487156563
   91      H       2.2112105526     6.3066068976    -3.9572465735
   92      H       2.5401257273     4.5072568390    -3.6992908129
   93      H       3.4102874442     5.7428812526    -2.7965217977
   94      O       1.0560042891     7.5790363968    -1.8224077837
   95      C       0.7894740943     6.3933661953    -1.6469859243
   96      C      -0.3934406750     6.0013456072    -0.7754048856
   97      H      -0.8059886187     6.9056038838    -0.3119243970
   98      H       0.0646549555     5.4047308716     0.0227111778
   99      C      -1.3618476570     5.0319152221    -1.5249204929
  100      H      -1.6657564764     5.6127261908    -2.4041702004
  101      H      -0.9435366366     4.1429468698    -2.0122757624
  102      C      -2.5020085922     4.6881071386    -0.5409799237
  103      H      -1.9660692770     4.2413256141     0.3052855900
  104      H      -2.9204681425     5.6125906224    -0.1239428835
  105      C      -3.6211303178     3.7059450833    -1.0546503049
  106      C      -4.2410273597     4.3771760676    -2.1918101983
  107      C      -5.1959484351     5.3148445085    -1.8629445194
  108      H      -5.5808952609     5.2607077332    -0.8486200393
  109      C      -5.7892531617     6.0981909125    -2.8541558554
  110      H      -6.6554866703     6.7404962057    -2.7319084876
  111      C      -5.2637488137     6.0965439544    -4.1422790901
  112      H      -5.7414872204     6.7051707169    -4.9045221475
  113      C      -4.2749003358     5.1821065948    -4.4993449149
  114      H      -4.0092343680     5.1936490670    -5.5519813026
  115      C      -3.8544086043     4.2459583980    -3.5438726455
  116      H      -3.0660568221     3.5530168186    -3.8218518444
  117      C      -8.0849107125     0.6037941323    -0.0646836058
  118      C      -7.0720531503    -0.3791006680    -2.0748889113
  119      C      -5.5707006174    -4.2377271844    -0.2469222873
  120      C      -4.4572196322     0.9002721145     3.6246816827
  121      C      -2.3140893448    -3.0093523449    -0.0360780960
  122      C      -7.4216285463     0.7613016860    -1.2896236609
  123      C      -2.7093929038    -1.3357204339     3.1877228164
  124      C      -7.6178493849    -2.9034181367     0.1746358802
  125      C      -3.1436347233     0.1626055642    -2.3474600393
  126      C      -3.2367827739     1.0072594244     2.9291066756
  127      C      -3.4715912884     2.2062870849    -1.1356500983
  128      C      -2.1714250980     0.2619311349    -1.3217920250
  129      C      -1.8317665364     0.1008289229     1.4832698529
  130      C      -2.5774313953    -2.3929500253     2.3040935099
  131      C      -5.3928633681     1.1054157715    -2.3176369624
  132      C      -3.9836508063    -4.1533034721     1.4097262977
  133      C      -4.4411445811     2.7980911866    -0.1662996365
  134      C      -4.2383134673     2.5184658703     1.3017968255
  135      C      -3.3743413794    -3.9496540571     0.1171188793
  136      C      -6.6790816310    -1.8267216363     3.2814203514
  137      C      -6.2910508606    -3.7321704634     2.0350877760
  138      C      -7.4660045474    -3.0698014010     1.5734384948
  139      C      -8.2008893914    -1.8072276567    -0.4227490731
  140      C      -5.4837434655     2.3651413166     1.9310453462
  141      C      -4.0219351374     1.3228381479    -2.2362901954
  142      C      -7.4888950467    -1.6678215885    -1.6668322702
  143      C      -2.3475192086    -0.0577774496     2.7321021874
  144      C      -5.8343497857    -0.1492899261    -2.7606012447
  145      C      -1.7314788925    -0.9114910550    -0.6546903083
  146      C      -6.6483022961     0.6251052872     3.1455293299
  147      C      -6.7264007204    -3.5409725991    -0.6742796550
  148      C      -2.3573451929     1.3743547675    -0.5418308851
  149      C      -8.1768469988    -0.7567984339     1.7333143330
  150      C      -1.5851490388    -1.0379959323     0.7148326342
  151      C      -3.6302235459    -1.0933201776    -2.7231392226
  152      C      -4.4595530402    -2.7864542795     3.4199378160
  153      C      -3.9721431600    -1.5006444913     3.7984926959
  154      C      -3.1535709822    -2.2965936797    -2.2382751048
  155      C      -5.6026255160     1.5514982421     3.0871327155
  156      C      -3.1328327754     1.8236973348     1.7336337415
  157      C      -6.1593688928    -0.5579983463     3.6993017737
  158      C      -5.8923059567     2.4904941218    -0.3148785984
  159      C      -5.4169025713    -2.5504785364    -2.5340530576
  160      C      -2.2376494942     1.2748016056     0.8473192536
  161      C      -2.1566281208    -2.2164234834    -1.1889145039
  162      C      -7.7096658474     0.5261685100     2.1837003814
  163      C      -4.3720800183    -4.0424114798    -0.8971856454
  164      C      -8.4630077151    -0.6708116067     0.3654092523
  165      C      -5.3445795354    -4.3467046596     1.1148450079
  166      C      -5.0162519676    -1.2376372939    -2.9586339872
  167      C      -4.2665018794    -3.2611894688    -2.0829020644
  168      C      -6.3392529273     1.6345500159    -1.4325060377
  169      C      -6.5240077462     2.3216461204     0.9041391215
  170      C      -5.8271910138    -3.0039034925     3.1105073507
  171      C      -6.5948787800    -2.6821694700    -1.7430640882
  172      C      -1.9450529117    -2.3103688538     1.1130503521
  173      C      -4.8126457340    -0.3725892731     4.0527776698
  174      C      -3.5778323528    -3.3463490204     2.5224081460
  175      C      -7.5807484824     1.3441201711     1.0571719117
  176      C      -7.6807178483    -1.9134704177     2.3928723577
 ----------------------------------------------------------------
 Molecular Point Group                 C1    NOp =  1
 Largest Abelian Subgroup              C1    NOp =  1
 Nuclear Repulsion Energy = 35690.2181986109 hartrees
 There are      462 alpha and      462 beta electrons
 Requested basis set is 6-31G(d,p)
 There are 676 shells and 2360 basis functions

 Total QAlloc Memory Limit  20000 MB
 Mega-Array Size      4888 MB
 MEM_STATIC part      5000 MB
 A cutoff of  1.0D-08 yielded  39054 shell pairs
 There are    544860 function pairs
 
 -------------------------------------------------------
 OpenMP Integral Computing Module                       
 Release: version 1.0, May 2013, Q-Chem Inc. Pittsburgh 
 -------------------------------------------------------
 Integral Job Info:
 Integral job number is                      11
 Integral operator is                         1
 short-range coefficients                     0
 long-range coefficients              100000000
 Omega coefficients                           0
 if combine SR and LR in K                    0
 Integral screening is                        0
 Integral computing path is                   2
 max size of driver memory is            800000
 size of driver memory is                593474
 size of scratch memory is              2260544
 max col of scratch BK array               1296
 max len of scratch array in speh3          155
 max len of scratch index in speh4           18
 max int batch size is                      520
 min int batch size is                       52
 fixed nKL is                                52
 max L of basis functions is                  2
 order of int derivative is                   0
 number of shells is                        676
 number of basis is                        2360
 number of cartesian basis is              2360
 number of contracted shell pairs         39054
 number of primitive shell pairs         116903
 maxK2 (contraction) of shell pair           36
 max number of K2 of shell pair               1
 max number of CS2 of shell pair           7404
 max number of PS2 of shell pair          35160
 mem total for path MDJ                 1546264
 -------------------------------------------------------
 Smallest overlap matrix eigenvalue = 2.32E-04

 Scale SEOQF with 1.000000e-02/1.000000e-02/1.000000e-02

 Standard Electronic Orientation quadrupole field applied
 Nucleus-field energy     =     0.0000000965 hartrees
 Guess from superposition of atomic densities
 Warning:  Energy on first SCF cycle will be non-variational
 A restricted hybrid HF-DFT SCF calculation will be
 performed using Pulay DIIS extrapolation
 Exchange:     0.2000 Hartree-Fock + 0.0800 Slater + 0.7200 B88
 Correlation:  0.1900 VWN1RPA + 0.8100 LYP
 Using SG-1 standard quadrature grid
 SCF converges when DIIS error is below 1.0E-05
 using 16 threads for integral computing 
 -------------------------------------------------------
 OpenMP BLAS3 based DFT computing Module                
 Release: version 1.0, May 2013, Q-Chem Inc. Pittsburgh 
 -------------------------------------------------------
 ---------------------------------------
  Cycle       Energy         DIIS Error
 ---------------------------------------
    1   -5858.4119976813      1.83E-02
    2   -5803.1012354304      1.29E-03
    3   -5802.3155439155      1.78E-03
    4   -5803.9343219275      6.65E-04
    5   -5804.1791358028      3.10E-04
    6   -5804.2421553960      1.24E-04
    7   -5804.2517596588      4.52E-05
    8   -5804.2526203138      2.99E-05
    9   -5804.2532868742      8.07E-06 Convergence criterion met
 ---------------------------------------
 SCF time:  CPU 8519.93 s  wall 873.19 s
 SCF   energy in the final basis set = -5804.2532868742
 Total energy in the final basis set = -5804.2532868742
 
 --------------------------------------------------------------
 
                    Orbital Energies (a.u.)
 --------------------------------------------------------------
 
 Alpha MOs
 -- Occupied --
-19.193 -19.182 -19.136 -19.128 -10.314 -10.310 -10.249 -10.246
-10.241 -10.241 -10.241 -10.240 -10.239 -10.236 -10.234 -10.233
-10.232 -10.232 -10.231 -10.231 -10.229 -10.229 -10.229 -10.227
-10.227 -10.226 -10.226 -10.226 -10.226 -10.226 -10.225 -10.224
-10.224 -10.224 -10.224 -10.224 -10.223 -10.223 -10.223 -10.223
-10.223 -10.222 -10.222 -10.222 -10.222 -10.222 -10.222 -10.222
-10.221 -10.221 -10.221 -10.221 -10.220 -10.220 -10.220 -10.220
-10.220 -10.220 -10.220 -10.220 -10.219 -10.219 -10.219 -10.219
-10.219 -10.219 -10.219 -10.219 -10.219 -10.218 -10.218 -10.218
-10.218 -10.218 -10.218 -10.218 -10.218 -10.218 -10.218 -10.218
-10.218 -10.218 -10.217 -10.217 -10.217 -10.217 -10.217 -10.217
-10.217 -10.216 -10.216 -10.216 -10.216 -10.216 -10.216 -10.216
-10.215 -10.215 -10.215 -10.215 -10.215 -10.215 -10.215 -10.214
-10.214 -10.214 -10.214 -10.214 -10.214 -10.213 -10.213 -10.213
-10.213 -10.213 -10.212 -10.212 -10.212 -10.212 -10.212 -10.212
-10.212 -10.211 -10.211 -10.211 -10.210 -10.208 -10.208 -10.208
-10.207 -10.207 -10.207 -10.205 -10.204 -10.203 -10.203 -10.202
-10.200 -10.200 -10.197 -10.197 -10.196 -10.196 -10.195 -10.195
-10.192 -10.192 -10.191 -10.191  -1.099  -1.091  -1.024  -1.003
 -0.988  -0.984  -0.970  -0.969  -0.967  -0.964  -0.964  -0.958
 -0.936  -0.935  -0.932  -0.930  -0.930  -0.928  -0.926  -0.923
 -0.923  -0.920  -0.902  -0.898  -0.894  -0.889  -0.888  -0.886
 -0.877  -0.875  -0.856  -0.855  -0.848  -0.845  -0.843  -0.841
 -0.840  -0.838  -0.822  -0.821  -0.807  -0.805  -0.801  -0.800
 -0.799  -0.798  -0.797  -0.795  -0.795  -0.794  -0.788  -0.785
 -0.777  -0.774  -0.772  -0.772  -0.770  -0.768  -0.766  -0.765
 -0.749  -0.747  -0.743  -0.743  -0.736  -0.735  -0.720  -0.718
 -0.718  -0.716  -0.716  -0.715  -0.714  -0.714  -0.713  -0.713
 -0.711  -0.709  -0.708  -0.706  -0.703  -0.701  -0.675  -0.675
 -0.666  -0.660  -0.660  -0.659  -0.649  -0.647  -0.633  -0.633
 -0.631  -0.630  -0.629  -0.627  -0.624  -0.623  -0.621  -0.619
 -0.618  -0.617  -0.615  -0.615  -0.615  -0.612  -0.612  -0.611
 -0.610  -0.607  -0.606  -0.604  -0.569  -0.567  -0.564  -0.564
 -0.562  -0.562  -0.561  -0.560  -0.558  -0.557  -0.556  -0.552
 -0.538  -0.537  -0.536  -0.535  -0.533  -0.530  -0.528  -0.528
 -0.527  -0.526  -0.521  -0.520  -0.519  -0.519  -0.518  -0.514
 -0.508  -0.507  -0.506  -0.499  -0.495  -0.493  -0.489  -0.488
 -0.488  -0.486  -0.485  -0.484  -0.482  -0.480  -0.477  -0.477
 -0.476  -0.473  -0.473  -0.472  -0.471  -0.470  -0.469  -0.469
 -0.468  -0.467  -0.465  -0.464  -0.464  -0.463  -0.461  -0.458
 -0.457  -0.456  -0.453  -0.451  -0.450  -0.448  -0.446  -0.446
 -0.444  -0.443  -0.442  -0.442  -0.441  -0.439  -0.436  -0.434
 -0.433  -0.432  -0.431  -0.430  -0.428  -0.427  -0.426  -0.425
 -0.424  -0.423  -0.423  -0.423  -0.422  -0.422  -0.421  -0.420
 -0.420  -0.419  -0.419  -0.418  -0.417  -0.417  -0.416  -0.415
 -0.412  -0.412  -0.409  -0.407  -0.406  -0.404  -0.400  -0.400
 -0.396  -0.395  -0.394  -0.393  -0.392  -0.391  -0.389  -0.386
 -0.383  -0.380  -0.377  -0.374  -0.371  -0.370  -0.367  -0.367
 -0.366  -0.366  -0.365  -0.364  -0.363  -0.363  -0.362  -0.360
 -0.359  -0.359  -0.358  -0.357  -0.356  -0.355  -0.353  -0.352
 -0.350  -0.349  -0.348  -0.347  -0.347  -0.347  -0.346  -0.345
 -0.344  -0.343  -0.342  -0.341  -0.339  -0.339  -0.336  -0.336
 -0.334  -0.333  -0.332  -0.331  -0.330  -0.329  -0.326  -0.325
 -0.311  -0.309  -0.298  -0.298  -0.292  -0.289  -0.275  -0.274
 -0.273  -0.272  -0.272  -0.270  -0.269  -0.267  -0.266  -0.265
 -0.265  -0.263  -0.262  -0.261  -0.259  -0.257  -0.255  -0.255
 -0.250  -0.249  -0.247  -0.244  -0.226  -0.224  -0.216  -0.215
 -0.214  -0.212  -0.209  -0.206  -0.205  -0.200
 -- Virtual --
 -0.127  -0.125  -0.124  -0.120  -0.114  -0.110  -0.082  -0.079
 -0.077  -0.076  -0.064  -0.062  -0.057  -0.055  -0.030  -0.026
 -0.024  -0.023  -0.022  -0.020  -0.019  -0.017  -0.015  -0.015
 -0.013  -0.013  -0.010  -0.009  -0.009  -0.007   0.001   0.005
  0.010   0.019   0.027   0.030   0.035   0.039   0.042   0.044
  0.046   0.047   0.050   0.052   0.056   0.057   0.061   0.062
  0.065   0.072   0.075   0.080   0.081   0.084   0.085   0.090
  0.091   0.095   0.096   0.097   0.099   0.100   0.106   0.108
  0.109   0.110   0.111   0.113   0.113   0.114   0.117   0.119
  0.120   0.123   0.124   0.126   0.128   0.134   0.135   0.139
  0.139   0.140   0.144   0.147   0.150   0.150   0.152   0.153
  0.155   0.158   0.159   0.161   0.161   0.165   0.166   0.168
  0.168   0.170   0.171   0.174   0.176   0.179   0.180   0.181
  0.182   0.183   0.183   0.185   0.186   0.187   0.189   0.191
  0.192   0.194   0.196   0.198   0.198   0.200   0.202   0.203
  0.205   0.207   0.210   0.212   0.213   0.215   0.216   0.216
  0.218   0.219   0.220   0.220   0.221   0.225   0.225   0.226
  0.227   0.228   0.228   0.230   0.232   0.234   0.235   0.236
  0.240   0.242   0.244   0.245   0.248   0.250   0.254   0.255
  0.260   0.263   0.269   0.269   0.271   0.273   0.275   0.279
  0.279   0.283   0.284   0.286   0.295   0.295   0.300   0.303
  0.304   0.307   0.309   0.310   0.313   0.314   0.317   0.318
  0.319   0.320   0.321   0.324   0.325   0.325   0.328   0.329
  0.330   0.334   0.336   0.338   0.343   0.344   0.344   0.346
  0.349   0.351   0.359   0.365   0.368   0.370   0.380   0.387
  0.389   0.391   0.394   0.398   0.399   0.401   0.402   0.404
  0.404   0.405   0.410   0.411   0.413   0.414   0.415   0.417
  0.422   0.426   0.431   0.432   0.433   0.435   0.436   0.440
  0.444   0.447   0.447   0.450   0.452   0.454   0.454   0.457
  0.459   0.460   0.462   0.465   0.467   0.469   0.470   0.471
  0.472   0.472   0.474   0.475   0.477   0.478   0.478   0.480
  0.483   0.483   0.484   0.485   0.486   0.487   0.488   0.489
  0.489   0.491   0.492   0.494   0.494   0.495   0.496   0.497
  0.499   0.500   0.501   0.503   0.504   0.504   0.506   0.507
  0.508   0.511   0.512   0.512   0.513   0.514   0.514   0.515
  0.515   0.516   0.517   0.517   0.519   0.520   0.521   0.522
  0.523   0.524   0.525   0.526   0.527   0.528   0.528   0.529
  0.530   0.531   0.532   0.532   0.532   0.534   0.534   0.536
  0.536   0.537   0.538   0.539   0.540   0.540   0.541   0.542
  0.543   0.544   0.545   0.546   0.546   0.547   0.549   0.549
  0.549   0.550   0.551   0.551   0.552   0.553   0.554   0.555
  0.555   0.557   0.558   0.558   0.559   0.561   0.562   0.563
  0.563   0.564   0.565   0.566   0.567   0.568   0.569   0.570
  0.571   0.572   0.572   0.573   0.575   0.575   0.577   0.577
  0.578   0.579   0.579   0.580   0.581   0.582   0.582   0.583
  0.584   0.585   0.586   0.586   0.587   0.588   0.589   0.590
  0.592   0.592   0.594   0.594   0.596   0.596   0.597   0.598
  0.600   0.602   0.603   0.603   0.604   0.605   0.606   0.607
  0.608   0.609   0.611   0.611   0.612   0.614   0.614   0.615
  0.617   0.617   0.618   0.619   0.622   0.622   0.623   0.624
  0.625   0.626   0.627   0.627   0.628   0.629   0.630   0.631
  0.632   0.633   0.634   0.635   0.636   0.638   0.639   0.639
  0.639   0.642   0.643   0.643   0.645   0.646   0.647   0.648
  0.649   0.651   0.651   0.652   0.653   0.654   0.655   0.656
  0.656   0.657   0.657   0.659   0.659   0.660   0.662   0.662
  0.663   0.664   0.665   0.666   0.666   0.667   0.667   0.668
  0.669   0.671   0.671   0.672   0.673   0.675   0.676   0.677
  0.677   0.680   0.681   0.683   0.684   0.685   0.686   0.687
  0.688   0.688   0.689   0.690   0.691   0.692   0.693   0.695
  0.695   0.696   0.697   0.699   0.700   0.702   0.702   0.703
  0.704   0.706   0.706   0.707   0.709   0.710   0.711   0.713
  0.714   0.715   0.716   0.718   0.719   0.719   0.721   0.723
  0.724   0.726   0.726   0.727   0.729   0.731   0.733   0.734
  0.735   0.737   0.738   0.739   0.741   0.741   0.744   0.747
  0.748   0.749   0.750   0.752   0.752   0.754   0.756   0.757
  0.758   0.759   0.760   0.762   0.763   0.766   0.767   0.768
  0.769   0.770   0.771   0.772   0.773   0.774   0.775   0.777
  0.778   0.779   0.780   0.781   0.782   0.783   0.784   0.785
  0.786   0.787   0.788   0.789   0.791   0.791   0.793   0.795
  0.796   0.797   0.798   0.799   0.800   0.801   0.802   0.804
  0.805   0.805   0.806   0.807   0.807   0.808   0.810   0.812
  0.813   0.813   0.814   0.815   0.816   0.816   0.817   0.818
  0.819   0.820   0.820   0.820   0.822   0.823   0.824   0.824
  0.828   0.829   0.831   0.832   0.835   0.838   0.838   0.840
  0.844   0.845   0.845   0.848   0.849   0.851   0.853   0.855
  0.857   0.859   0.861   0.866   0.868   0.869   0.870   0.872
  0.876   0.878   0.879   0.883   0.884   0.888   0.890   0.893
  0.895   0.899   0.899   0.904   0.905   0.907   0.913   0.914
  0.915   0.917   0.919   0.922   0.923   0.924   0.926   0.927
  0.929   0.930   0.933   0.934   0.935   0.936   0.939   0.940
  0.943   0.943   0.946   0.947   0.949   0.951   0.954   0.956
  0.957   0.961   0.965   0.968   0.969   0.971   0.972   0.974
  0.976   0.980   0.984   0.985   0.986   0.987   0.990   0.992
  0.994   0.997   0.998   0.999   1.001   1.003   1.004   1.007
  1.008   1.012   1.012   1.013   1.015   1.016   1.018   1.018
  1.020   1.020   1.022   1.024   1.026   1.028   1.029   1.030
  1.031   1.034   1.036   1.039   1.040   1.041   1.042   1.046
  1.047   1.048   1.049   1.052   1.053   1.054   1.056   1.058
  1.061   1.062   1.064   1.065   1.066   1.067   1.068   1.072
  1.073   1.075   1.077   1.080   1.080   1.083   1.085   1.086
  1.087   1.088   1.089   1.090   1.091   1.092   1.096   1.096
  1.099   1.101   1.102   1.106   1.106   1.111   1.112   1.117
  1.117   1.119   1.122   1.124   1.125   1.127   1.129   1.133
  1.134   1.136   1.138   1.140   1.143   1.144   1.145   1.147
  1.150   1.151   1.154   1.154   1.156   1.157   1.159   1.161
  1.163   1.164   1.166   1.168   1.168   1.170   1.172   1.174
  1.175   1.178   1.179   1.179   1.181   1.182   1.183   1.186
  1.188   1.190   1.192   1.193   1.195   1.198   1.199   1.200
  1.207   1.208   1.210   1.213   1.213   1.214   1.221   1.222
  1.225   1.226   1.228   1.230   1.234   1.239   1.241   1.241
  1.243   1.248   1.248   1.251   1.252   1.256   1.257   1.258
  1.260   1.261   1.264   1.266   1.268   1.270   1.273   1.276
  1.277   1.279   1.282   1.284   1.285   1.288   1.291   1.291
  1.294   1.296   1.299   1.300   1.302   1.306   1.310   1.311
  1.313   1.317   1.320   1.325   1.326   1.326   1.327   1.330
  1.332   1.335   1.335   1.338   1.341   1.345   1.346   1.346
  1.350   1.350   1.354   1.356   1.356   1.359   1.364   1.365
  1.366   1.371   1.373   1.373   1.380   1.381   1.382   1.383
  1.385   1.389   1.393   1.395   1.396   1.398   1.403   1.404
  1.406   1.407   1.411   1.412   1.414   1.418   1.419   1.425
  1.426   1.431   1.434   1.436   1.440   1.442   1.447   1.448
  1.452   1.453   1.455   1.457   1.460   1.462   1.462   1.465
  1.468   1.470   1.472   1.473   1.475   1.477   1.479   1.481
  1.483   1.485   1.487   1.490   1.493   1.496   1.497   1.499
  1.500   1.506   1.507   1.511   1.513   1.514   1.520   1.522
  1.524   1.525   1.529   1.530   1.531   1.535   1.537   1.540
  1.542   1.544   1.546   1.549   1.552   1.553   1.556   1.558
  1.561   1.562   1.565   1.565   1.567   1.570   1.573   1.574
  1.576   1.579   1.580   1.583   1.586   1.588   1.591   1.593
  1.595   1.599   1.602   1.603   1.609   1.614   1.616   1.619
  1.621   1.622   1.628   1.630   1.634   1.637   1.640   1.641
  1.645   1.649   1.655   1.662   1.663   1.666   1.667   1.671
  1.675   1.679   1.680   1.684   1.686   1.689   1.690   1.695
  1.695   1.696   1.700   1.702   1.703   1.709   1.710   1.714
  1.715   1.718   1.720   1.721   1.725   1.727   1.728   1.730
  1.732   1.732   1.734   1.737   1.739   1.741   1.742   1.744
  1.745   1.746   1.747   1.748   1.751   1.751   1.752   1.753
  1.754   1.756   1.759   1.760   1.761   1.765   1.765   1.768
  1.769   1.770   1.771   1.772   1.773   1.774   1.775   1.776
  1.778   1.780   1.781   1.781   1.782   1.785   1.785   1.786
  1.787   1.788   1.791   1.792   1.793   1.796   1.796   1.798
  1.799   1.802   1.803   1.805   1.806   1.807   1.808   1.809
  1.811   1.812   1.815   1.816   1.819   1.819   1.821   1.823
  1.825   1.827   1.829   1.833   1.834   1.836   1.838   1.842
  1.844   1.845   1.846   1.848   1.849   1.852   1.855   1.856
  1.856   1.859   1.861   1.863   1.866   1.867   1.868   1.869
  1.872   1.873   1.875   1.877   1.880   1.881   1.882   1.882
  1.887   1.889   1.889   1.893   1.897   1.899   1.904   1.904
  1.907   1.910   1.912   1.914   1.915   1.918   1.919   1.922
  1.923   1.925   1.927   1.928   1.931   1.933   1.934   1.935
  1.938   1.939   1.941   1.943   1.944   1.947   1.949   1.952
  1.954   1.955   1.956   1.961   1.962   1.963   1.964   1.968
  1.969   1.971   1.973   1.974   1.974   1.977   1.980   1.982
  1.983   1.985   1.986   1.988   1.990   1.991   1.992   1.994
  1.997   1.997   1.998   1.999   2.001   2.002   2.003   2.004
  2.007   2.008   2.010   2.011   2.012   2.013   2.014   2.014
  2.015   2.017   2.019   2.019   2.020   2.021   2.023   2.024
  2.025   2.026   2.029   2.030   2.030   2.032   2.033   2.033
  2.036   2.037   2.039   2.039   2.040   2.043   2.044   2.045
  2.046   2.047   2.049   2.049   2.052   2.053   2.054   2.056
  2.056   2.058   2.059   2.061   2.064   2.065   2.066   2.068
  2.069   2.071   2.073   2.073   2.076   2.077   2.078   2.080
  2.082   2.083   2.085   2.085   2.087   2.090   2.090   2.092
  2.093   2.095   2.097   2.097   2.099   2.100   2.102   2.106
  2.108   2.110   2.113   2.117   2.120   2.120   2.121   2.124
  2.128   2.132   2.134   2.137   2.139   2.142   2.142   2.147
  2.152   2.153   2.156   2.159   2.163   2.168   2.171   2.180
  2.180   2.182   2.185   2.190   2.195   2.197   2.199   2.204
  2.206   2.208   2.212   2.214   2.215   2.218   2.220   2.222
  2.224   2.229   2.231   2.234   2.235   2.237   2.238   2.239
  2.240   2.243   2.248   2.252   2.256   2.257   2.260   2.263
  2.264   2.265   2.267   2.271   2.274   2.276   2.277   2.284
  2.286   2.287   2.290   2.291   2.292   2.294   2.296   2.297
  2.298   2.299   2.303   2.304   2.308   2.311   2.313   2.314
  2.316   2.318   2.321   2.323   2.325   2.330   2.336   2.336
  2.337   2.340   2.341   2.343   2.345   2.348   2.350   2.351
  2.354   2.356   2.357   2.360   2.362   2.363   2.366   2.367
  2.370   2.370   2.372   2.373   2.377   2.378   2.379   2.382
  2.383   2.384   2.386   2.387   2.388   2.391   2.392   2.394
  2.395   2.397   2.397   2.399   2.400   2.404   2.405   2.408
  2.410   2.412   2.416   2.418   2.418   2.420   2.422   2.424
  2.425   2.428   2.430   2.433   2.434   2.436   2.441   2.443
  2.446   2.450   2.450   2.452   2.456   2.457   2.459   2.462
  2.464   2.466   2.468   2.469   2.471   2.473   2.474   2.476
  2.479   2.482   2.483   2.485   2.487   2.488   2.490   2.491
  2.492   2.494   2.494   2.497   2.500   2.502   2.503   2.504
  2.506   2.507   2.510   2.512   2.515   2.517   2.519   2.520
  2.522   2.525   2.528   2.529   2.530   2.533   2.535   2.539
  2.541   2.544   2.546   2.550   2.552   2.559   2.561   2.566
  2.570   2.571   2.577   2.578   2.579   2.580   2.582   2.584
  2.587   2.589   2.592   2.593   2.594   2.598   2.599   2.600
  2.603   2.608   2.611   2.611   2.613   2.614   2.616   2.619
  2.621   2.622   2.626   2.626   2.627   2.629   2.632   2.634
  2.634   2.635   2.636   2.637   2.641   2.644   2.646   2.648
  2.649   2.650   2.651   2.652   2.655   2.655   2.656   2.659
  2.661   2.662   2.663   2.666   2.668   2.669   2.670   2.673
  2.674   2.676   2.677   2.677   2.680   2.682   2.682   2.687
  2.690   2.693   2.695   2.696   2.699   2.703   2.705   2.707
  2.709   2.711   2.713   2.715   2.717   2.718   2.721   2.724
  2.727   2.728   2.729   2.731   2.734   2.736   2.737   2.740
  2.743   2.745   2.746   2.748   2.751   2.754   2.757   2.758
  2.760   2.760   2.763   2.764   2.767   2.769   2.770   2.772
  2.775   2.776   2.782   2.786   2.787   2.787   2.792   2.796
  2.796   2.800   2.806   2.809   2.810   2.812   2.817   2.821
  2.822   2.825   2.831   2.831   2.832   2.834   2.837   2.839
  2.840   2.844   2.847   2.849   2.850   2.853   2.856   2.859
  2.861   2.861   2.862   2.867   2.869   2.872   2.873   2.875
  2.877   2.878   2.880   2.883   2.884   2.887   2.888   2.889
  2.890   2.890   2.895   2.897   2.899   2.900   2.902   2.904
  2.905   2.907   2.909   2.911   2.912   2.914   2.915   2.916
  2.918   2.920   2.924   2.925   2.926   2.929   2.933   2.933
  2.936   2.937   2.941   2.944   2.946   2.948   2.950   2.951
  2.952   2.956   2.964   2.965   2.968   2.971   2.972   2.974
  2.977   2.983   2.985   2.989   2.990   2.994   2.996   3.000
  3.003   3.007   3.011   3.013   3.015   3.019   3.020   3.021
  3.024   3.026   3.029   3.030   3.035   3.036   3.039   3.043
  3.047   3.049   3.051   3.052   3.053   3.058   3.059   3.062
  3.064   3.067   3.069   3.075   3.080   3.088   3.098   3.099
  3.110   3.115   3.122   3.129   3.146   3.149   3.150   3.155
  3.157   3.168   3.168   3.170   3.174   3.182   3.185   3.188
  3.193   3.199   3.207   3.222   3.223   3.237   3.246   3.247
  3.249   3.253   3.261   3.267   3.273   3.274   3.277   3.283
  3.286   3.289   3.298   3.318   3.321   3.323   3.323   3.325
  3.328   3.333   3.334   3.348   3.356   3.358   3.382   3.388
  3.391   3.403   3.409   3.411   3.434   3.436   3.441   3.445
  3.446   3.452   3.456   3.470   3.470   3.474   3.490   3.493
  3.503   3.504   3.508   3.510   3.517   3.520   3.540   3.545
  3.547   3.555   3.560   3.563   3.568   3.580   3.587   3.597
  3.608   3.635   3.666   3.698   3.868   3.878   4.009   4.028
  4.066   4.074   4.075   4.079   4.081   4.083   4.093   4.094
  4.098   4.100   4.100   4.102   4.107   4.120   4.122   4.126
  4.132   4.136   4.138   4.142   4.142   4.144   4.147   4.153
  4.156   4.161   4.169   4.170   4.171   4.177   4.180   4.184
  4.188   4.194   4.201   4.213   4.218   4.228   4.235   4.237
  4.242   4.244   4.246   4.251   4.252   4.262   4.264   4.266
  4.271   4.275   4.281   4.286   4.289   4.295   4.299   4.308
  4.311   4.316   4.340   4.363   4.379   4.381   4.385   4.394
  4.396   4.397   4.399   4.405   4.406   4.411   4.415   4.418
  4.420   4.425   4.427   4.446   4.447   4.467   4.472   4.482
  4.486   4.496   4.518   4.531   4.532   4.538   4.546   4.554
  4.560   4.564   4.597   4.612   4.613   4.623   4.629   4.638
  4.644   4.654   4.676   4.680   4.685   4.686   4.696   4.697
  4.700   4.706   4.707   4.715   4.745   4.747   4.780   4.803
  4.829   4.840   4.859   4.867   4.867   4.879   4.886   4.892
  4.906   4.910   4.948   4.956   4.957   4.964   4.968   4.973
  4.974   4.995   5.007   5.011   5.139   5.160   5.169   5.189
  5.189   5.205   5.212   5.237   5.301   5.315   5.320   5.341
  5.346   5.388
 --------------------------------------------------------------
 
          Ground-State Mulliken Net Atomic Charges

     Atom                 Charge (a.u.)
  ----------------------------------------
      1 O                    -0.484038
      2 C                    -0.083894
      3 H                     0.122211
      4 H                     0.127108
      5 H                     0.117194
      6 O                    -0.449648
      7 C                     0.607292
      8 C                    -0.271447
      9 H                     0.133278
     10 H                     0.136220
     11 C                    -0.189415
     12 H                     0.105357
     13 H                     0.139897
     14 C                    -0.194362
     15 H                     0.109858
     16 H                     0.115065
     17 C                     0.008852
     18 C                     0.085556
     19 C                    -0.125502
     20 H                     0.092164
     21 C                    -0.095759
     22 H                     0.089045
     23 C                    -0.070702
     24 H                     0.091291
     25 C                    -0.088300
     26 H                     0.094365
     27 C                    -0.090944
     28 H                     0.091142
     29 C                    -0.025774
     30 C                     0.006752
     31 C                     0.012299
     32 C                     0.025564
     33 C                     0.004577
     34 C                     0.010107
     35 C                    -0.032406
     36 C                     0.003280
     37 C                    -0.001361
     38 C                    -0.000723
     39 C                    -0.072612
     40 C                     0.004404
     41 C                     0.004754
     42 C                     0.000438
     43 C                     0.005178
     44 C                    -0.004941
     45 C                    -0.098739
     46 C                     0.037217
     47 C                    -0.041531
     48 C                    -0.007005
     49 C                    -0.013544
     50 C                    -0.005826
     51 C                     0.005649
     52 C                     0.030250
     53 C                     0.023410
     54 C                    -0.006872
     55 C                    -0.002982
     56 C                    -0.016597
     57 C                    -0.028574
     58 C                    -0.013222
     59 C                     0.032699
     60 C                     0.047459
     61 C                    -0.000842
     62 C                    -0.006293
     63 C                     0.014369
     64 C                     0.017782
     65 C                    -0.004895
     66 C                    -0.005908
     67 C                    -0.025541
     68 C                    -0.018004
     69 C                     0.007779
     70 C                    -0.002456
     71 C                    -0.027185
     72 C                    -0.028507
     73 C                     0.048047
     74 C                     0.017949
     75 C                     0.019266
     76 C                     0.000150
     77 C                    -0.015411
     78 C                    -0.009670
     79 C                     0.017414
     80 C                     0.023177
     81 C                     0.002621
     82 C                     0.024213
     83 C                    -0.028873
     84 C                     0.006149
     85 C                    -0.005394
     86 C                    -0.001448
     87 C                     0.001388
     88 C                    -0.025884
     89 O                    -0.461575
     90 C                    -0.085472
     91 H                     0.131436
     92 H                     0.126546
     93 H                     0.127654
     94 O                    -0.478010
     95 C                     0.578547
     96 C                    -0.249348
     97 H                     0.138488
     98 H                     0.124052
     99 C                    -0.191199
    100 H                     0.122761
    101 H                     0.122369
    102 C                    -0.175836
    103 H                     0.104959
    104 H                     0.115282
    105 C                     0.002064
    106 C                     0.109234
    107 C                    -0.106913
    108 H                     0.087972
    109 C                    -0.086046
    110 H                     0.089175
    111 C                    -0.083035
    112 H                     0.086615
    113 C                    -0.090626
    114 H                     0.093094
    115 C                    -0.113221
    116 H                     0.085608
    117 C                    -0.008022
    118 C                    -0.017904
    119 C                    -0.008060
    120 C                    -0.014080
    121 C                     0.017868
    122 C                    -0.001141
    123 C                    -0.013134
    124 C                     0.042066
    125 C                    -0.001864
    126 C                     0.002089
    127 C                    -0.110371
    128 C                     0.009856
    129 C                    -0.000055
    130 C                     0.027736
    131 C                     0.032477
    132 C                    -0.013615
    133 C                    -0.092784
    134 C                     0.047906
    135 C                    -0.017910
    136 C                     0.029390
    137 C                     0.013755
    138 C                    -0.044461
    139 C                    -0.027701
    140 C                    -0.015452
    141 C                     0.005840
    142 C                    -0.020191
    143 C                    -0.014212
    144 C                     0.004610
    145 C                    -0.014226
    146 C                     0.011855
    147 C                     0.006797
    148 C                     0.040796
    149 C                     0.006327
    150 C                     0.006668
    151 C                     0.040919
    152 C                    -0.019292
    153 C                     0.017575
    154 C                    -0.027028
    155 C                    -0.002890
    156 C                    -0.022402
    157 C                     0.007739
    158 C                     0.030122
    159 C                    -0.009613
    160 C                     0.040686
    161 C                    -0.026240
    162 C                    -0.028652
    163 C                     0.025801
    164 C                     0.012117
    165 C                    -0.006310
    166 C                    -0.014895
    167 C                    -0.031844
    168 C                     0.002690
    169 C                    -0.000659
    170 C                    -0.006245
    171 C                     0.031789
    172 C                     0.009876
    173 C                    -0.017822
    174 C                     0.005106
    175 C                     0.011085
    176 C                    -0.014244
  ----------------------------------------
  Sum of atomic charges =     0.000000

 -----------------------------------------------------------------
                    Cartesian Multipole Moments
 -----------------------------------------------------------------
    Charge (ESU x 10^10)
                 0.0000
    Dipole Moment (Debye)
         X       0.2792      Y      -1.2830      Z      -1.1915
       Tot       1.7731
    Quadrupole Moments (Debye-Ang)
        XX    -798.1563     XY     -18.3448     YY    -834.4325
        XZ       0.7981     YZ      -7.6401     ZZ    -798.4488
    Octopole Moments (Debye-Ang^2)
       XXX     183.2751    XXY     -14.4593    XYY    -113.2081
       YYY    -181.0753    XXZ    -140.7897    XYZ      16.7066
       YYZ      26.6694    XZZ      39.5323    YZZ      52.0497
       ZZZ    -224.7818
    Hexadecapole Moments (Debye-Ang^3)
      XXXX -118380.9839   XXXY   -1456.7929   XXYY  -26911.4256
      XYYY   -1018.0435   YYYY  -51194.4269   XXXZ    -447.0474
      XXYZ      13.7410   XYYZ     304.7124   YYYZ    -185.7706
      XXZZ  -23621.4854   XYZZ    -416.2697   YYZZ  -11912.8148
      XZZZ    -184.3818   YZZZ    -257.0588   ZZZZ  -24490.7471
 -----------------------------------------------------------------
Archival summary:
1\1\mn251\SP\ProcedureUnspecified\6-31G**\428\afmv_a\MonOct1501:50:402018MonOct1501:50:402018\0\\#,ProcedureUnspecified,6-31G**,\\0,1\O\C,1,1.3545\O,2,1.22785,1,125.028\C,1,1.44018,2,123.881,3,-9.74192,0\H,4,1.09601,1,108.435,2,51.9727,0\H,4,1.0969,1,103.99,2,174.55,0\H,4,1.09718,1,116.347,2,-68.4499,0\C,2,1.52073,1,114.103,3,-169.125,0\H,8,1.09667,2,108.801,1,175.923,0\H,8,1.09672,2,103.439,1,-70.177,0\C,8,1.56185,2,111.547,1,42.9913,0\H,11,1.09671,8,118.677,2,-50.5348,0\H,11,1.09671,8,103.17,2,59.1705,0\C,11,1.54477,8,106.865,2,-179.098,0\H,14,1.09682,11,102.795,8,58.7131,0\H,14,1.09713,11,109.639,8,-51.0634,0\C,14,1.5751,11,117.095,8,179.601,0\C,17,1.45875,14,105.619,11,61.5901,0\C,18,1.37813,17,114.93,14,81.8872,0\H,19,1.08626,18,115.752,17,16.4367,0\C,19,1.39576,18,120.46,17,-175.095,0\H,21,1.08529,19,126.259,18,-169.214,0\C,21,1.39119,19,119.756,18,10.7922,0\H,23,1.08613,21,118.881,19,-179.51,0\C,23,1.39338,21,120.406,19,-9.15747,0\H,25,1.0857,23,114.527,21,-173.784,0\C,25,1.40218,23,118.447,21,-1.78288,0\H,27,1.08579,25,117.993,23,178.499,0\C,17,1.50927,14,124.52,11,-78.6562,0\C,29,1.49329,17,60.4651,14,-113.152,0\C,30,1.49083,29,119.048,17,-117.674,0\C,31,1.38332,30,112.449,29,-141.778,0\C,32,1.44765,31,120.592,30,144.167,0\C,33,1.39812,32,123.198,31,-139.156,0\C,33,1.43556,32,121.465,31,5.38841,0\C,35,1.39734,33,108.96,32,-146.982,0\C,36,1.40016,35,107.543,33,1.34144,0\C,35,1.40187,33,117.306,32,-6.47576,0\C,38,1.39804,35,121.722,33,2.02338,0\C,39,1.39968,38,110.608,35,-144.1,0\C,40,1.39044,39,124.788,38,148.327,0\C,40,1.40193,39,108.979,38,0.896772,0\C,42,1.37586,40,124.485,39,141.259,0\C,36,1.4076,35,120.911,33,140.004,0\C,44,1.37784,36,118.577,35,-131.468,0\C,45,1.3863,44,111.87,36,143.573,0\C,46,1.37737,45,104.467,44,-9.93209,0\C,47,1.35424,46,111.119,45,8.44545,0\C,43,1.41328,42,118.58,40,0.982858,0\C,49,1.38208,43,107.926,42,-146.412,0\C,49,1.3983,43,118.539,42,2.36172,0\C,48,1.41459,47,118.138,46,-142.213,0\C,46,1.41554,45,124.507,44,-149.21,0\C,53,1.37756,46,119.873,45,134.54,0\C,53,1.38471,46,117.967,45,-3.20684,0\C,55,1.40588,53,110.703,46,138.645,0\C,51,1.4167,49,119.755,43,-137.657,0\C,57,1.37127,51,112.063,49,143.629,0\C,58,1.39785,57,119.727,51,-136.832,0\C,59,1.37412,58,123.832,57,134.229,0\C,60,1.37524,59,121.53,58,-0.395209,0\C,59,1.39549,58,122.527,57,-5.06843,0\C,62,1.36042,59,113.963,58,150.371,0\C,62,1.39579,59,119.136,58,2.62722,0\C,64,1.38096,62,123.157,59,140.523,0\C,65,1.35104,64,115.628,62,-0.829278,0\C,64,1.38312,62,116.86,59,-1.57878,0\C,66,1.38418,65,124.105,64,9.01579,0\C,65,1.39473,64,107.045,62,-144.971,0\C,66,1.39908,65,120.924,64,-145.437,0\C,70,1.37712,66,106.407,65,148.846,0\C,63,1.40139,62,106.321,59,-4.74277,0\C,61,1.40377,60,121.147,59,-139.293,0\C,69,1.40803,65,111.27,64,-1.91863,0\C,72,1.40881,63,124.153,62,-142.818,0\C,75,1.38916,72,116.32,63,4.3673,0\C,76,1.40463,75,106.78,72,133.282,0\C,77,1.3948,76,108.907,75,4.11148,0\C,78,1.39823,77,108.446,76,-2.6164,0\C,68,1.41237,66,105.79,65,-145.202,0\C,45,1.41682,44,124.53,36,-11.4056,0\C,71,1.41897,70,114.373,66,-137.383,0\C,82,1.37915,71,125.109,70,-1.50654,0\C,37,1.42093,36,125.088,35,142.339,0\C,84,1.34176,37,121.025,36,-135.402,0\C,54,1.42386,53,122.371,46,6.53993,0\C,47,1.425,46,124.561,45,-149.526,0\C,69,1.4254,65,116.031,64,145.034,0\C,6,2.79408,4,119.134,1,72.3757,0\C,89,1.37644,6,124.659,4,-177.12,0\C,90,1.39619,89,121.791,6,-118.276,0\C,89,1.40997,6,87.7183,4,-64.399,0\C,92,1.36502,89,105.203,6,-125.869,0\C,92,1.39639,89,123.363,6,91.8098,0\C,94,1.38717,92,115.448,89,1.31889,0\C,95,1.38506,94,123.914,92,2.52611,0\C,96,1.36615,95,124.856,94,138.776,0\C,97,1.39252,96,109.086,95,-142.556,0\C,98,1.36986,97,108.765,96,-4.59912,0\C,96,1.39308,95,119.495,94,-5.3334,0\C,99,1.39616,98,117.37,97,143.789,0\C,101,1.38501,99,123.825,98,0.530924,0\C,93,1.40166,92,118.644,89,-148.077,0\C,103,1.33728,93,124.217,92,4.16969,0\C,103,1.37511,93,118.969,92,141.337,0\C,105,1.38744,103,110.91,93,-142.963,0\C,106,1.37718,105,106.662,103,0.530846,0\C,106,1.38759,105,118.513,103,134.285,0\C,108,1.38623,106,123.834,105,-138.918,0\C,104,1.40535,103,117.863,93,-3.54183,0\C,108,1.40558,106,122.984,105,14.955,0\C,111,1.36773,108,116.905,106,-8.97125,0\C,97,1.40583,96,119.411,95,-0.838498,0\C,93,1.40718,92,113.387,89,0.775823,0\C,114,1.36068,93,122.694,92,-145.945,0\C,115,1.40864,114,121.302,93,137.878,0\C,95,1.41202,94,107.983,92,144.425,0\C,115,1.41331,114,117.466,93,1.67492,0\C,102,1.42023,101,108.296,99,-139.681,0\C,119,1.39539,102,120.679,101,146.039,0\C,119,1.41149,102,107.823,101,-1.80914,0\C,109,1.42043,108,121.852,106,7.70209,0\C,122,1.39364,109,120.187,108,130.138,0\C,123,1.38032,122,108.486,109,-131.411,0\C,124,1.39317,123,121.518,122,146.908,0\C,125,1.3831,124,119.782,123,-147.208,0\C,123,1.3956,122,118.831,109,6.46857,0\C,127,1.39574,123,121.038,122,-2.35082,0\C,128,1.35671,127,109.655,123,-143.277,0\C,128,1.37716,127,121.422,123,-1.58947,0\C,130,1.32903,128,122.23,127,-142.236,0\C,125,1.41018,124,122.442,123,-2.49692,0\C,132,1.39335,125,115.571,124,-3.83698,0\C,133,1.37927,132,120.297,125,-134.969,0\C,134,1.3715,133,120.525,132,2.63361,0\C,135,1.3993,134,120.774,133,-2.52784,0\C,124,1.41332,123,108.903,122,-3.54655,0\C,137,1.36779,124,118.832,123,147.205,0\C,137,1.40133,124,106.829,123,5.06117,0\C,129,1.41918,128,123.626,127,143.571,0\C,140,1.37672,129,117.157,128,3.41883,0\C,140,1.3817,129,121.094,128,-138.729,0\C,142,1.40228,140,121.155,129,-3.16899,0\C,143,1.37704,142,118.509,140,139.339,0\C,136,1.4215,135,107.611,134,140.681,0\C,113,1.4258,97,122.527,96,-142.255,0\C,112,1.45997,111,121.747,108,-147.032,0\C,141,1.46674,140,111.944,129,-150.728,0\C,147,1.52599,112,127.283,111,-64.1356,0\C,149,1.54279,147,119.24,112,-155.321,0\C,150,1.38706,149,123.801,147,-112.103,0\H,151,1.08546,150,120.661,149,10.8314,0\C,150,1.44188,149,120.12,147,61.4347,0\H,153,1.08612,150,117.362,149,2.76973,0\C,153,1.3752,150,122.021,149,-179.779,0\H,155,1.0859,153,116.197,150,-172.463,0\C,155,1.36734,153,121.973,150,-0.0664234,0\H,157,1.08563,155,125.09,153,177.316,0\C,157,1.37803,155,117.274,153,9.60476,0\H,159,1.08592,157,114.521,155,164.743,0\C,149,1.59688,147,120.16,112,-4.92986,0\H,161,1.09704,149,105.838,147,148.102,0\H,161,1.09762,149,111.18,147,30.6035,0\C,161,1.58457,149,112.093,147,-93.1984,0\H,164,1.09611,161,111.115,149,-172.644,0\H,164,1.09673,161,111.224,149,-56.133,0\C,164,1.53736,161,111.288,149,70.0633,0\H,167,1.09625,164,103.544,161,-38.7751,0\H,167,1.09675,164,114.777,161,75.1536,0\C,167,1.47193,164,115.797,161,-158.514,0\O,170,1.17691,167,124.198,164,13.8751,0\O,170,1.37226,167,110.456,164,-162.622,0\C,172,1.42503,170,122.7,167,176.539,0\H,173,1.09608,172,108.026,170,-173.959,0\H,173,1.09689,172,110.289,170,-51.5036,0\H,173,1.09711,172,110.84,170,80.8269,0\\\@

 Total job time:  888.79s(wall), 8547.60s(cpu) 
 Mon Oct 15 01:50:40 2018

        *************************************************************
        *                                                           *
        *  Thank you very much for using Q-Chem.  Have a nice day.  *
        *                                                           *
        *************************************************************


