
Running Job 1 of 1 ./6/13.qcin
qchem ./6/13.qcin_50809.0 /tmpu/cab_g/afmv_a/scratch_qchem/qchem50809/ 1
/tmpu/appuserlic/qchem4.4/serial-multicore/exe/qcprog.exe_s ./6/13.qcin_50809.0 /tmpu/cab_g/afmv_a/scratch_qchem/qchem50809/
Check license passed

                  Welcome to Q-Chem
     A Quantum Leap Into The Future Of Chemistry


 Q-Chem 4.4, Q-Chem, Inc., Pleasanton, CA (2016)

 Y. Shao,  Z. Gan,  E. Epifanovsky,  A. T. B. Gilbert,  M. Wormit,  
 J. Kussmann,  A. W. Lange,  A. Behn,  J. Deng,  X. Feng,  D. Ghosh,  
 M. Goldey,  P. R. Horn,  L. D. Jacobson,  I. Kaliman,  F. Rob,  
 R. Z. Khaliullin,  T. Kus,  A. Landau,  J. Liu,  E. I. Proynov,  Y. M. Rhee,  
 R. M. Richard,  M. A. Rohrdanz,  R. P. Steele,  E. J. Sundstrom,  
 H. L. Woodcock III,  P. M. Zimmerman,  D. Zuev,  B. Albrecht,  E. Alguire,  
 B. Austin,  S. A. Baeppler,  G. J. O. Beran,  Y. A. Bernard,  E. Berquist,  
 K. Brandhorst,  K. B. Bravaya,  S. T. Brown,  D. Casanova,  C.-M. Chang,  
 Y. Chen,  S. H. Chien,  K. D. Closser,  M. P. Coons,  D. L. Crittenden,  
 S. Dasgupta,  M. Diedenhofen,  R. A. DiStasio Jr.,  H. Do,  A. D. Dutoi,  
 R. G. Edgar,  P.-T. Fang,  S. Fatehi,  Q. Feng,  L. Fusti-Molnar,  
 A. Ghysels,  A. Golubeva-Zadorozhnaya,  J. Gomes,  A. Gunina,  
 M. W. D. Hanson-Heine,  P. H. P. Harbach,  A. W. Hauser,  J. E. Herr,  
 E. G. Hohenstein,  Z. C. Holden,  K. Hui,  T.-C. Jagau,  H. Ji,  B. Kaduk,  
 K. Khistyaev,  Jaehoon Kim,  Jihan Kim,  R. A. King,  P. Klunzinger,  
 K. Koh,  D. Kosenkov,  T. Kowalczyk,  C. M. Krauter,  A. Kunitsa,  
 K. U. Lao,  A. Laurent,  K. V. Lawler,  J. Lee,  D. Lefrancois,  S. Lehtola,  
 S. V. Levchenko,  C. Y. Lin,  Y.-S. Lin,  F. Liu,  E. Livshits,  
 R. C. Lochan,  A. Luenser,  P. Manohar,  S. F. Manzer,  S.-P. Mao,  Y. Mao,  
 N. Mardirossian,  A. V. Marenich,  L. A. Martinez-Martinez,  S. A. Maurer,  
 N. J. Mayhall,  J.-M. Mewes,  A. F. Morrison,  K. Nanda,  T. S. Nguyen-Beck,  
 C. M. Oana,  R. Olivares-Amaya,  D. P. O'Neill,  J. A. Parkhill,  
 T. M. Perrine,  R. Peverati,  P. A. Pieniazek,  F. Plasser,  A. Prociuk,  
 D. R. Rehn,  E. Rosta,  N. J. Russ,  N. Sergueev,  S. M. Sharada,  
 S. Sharma,  D. W. Small,  A. Sodt,  T. Stauch,  T. Stein,  D. Stuck,  
 Y.-C. Su,  A. J. W. Thom,  T. Tsuchimochi,  L. Vogt,  O. Vydrov,  T. Wang,  
 M. A. Watson,  J. Wenzel,  A. White,  C. F. Williams,  V. Vanovschi,  
 K. Yao,  S. Yeganeh,  S. R. Yost,  Z.-Q. You,  I. Y. Zhang,  X. Zhang,  
 Y. Zhao,  B. R. Brooks,  G. K. L. Chan,  D. M. Chipman,  C. J. Cramer,  
 W. A. Goddard III,  M. S. Gordon,  W. J. Hehre,  A. Klamt,  
 H. F. Schaefer III,  M. W. Schmidt,  C. D. Sherrill,  D. G. Truhlar,  
 A. Warshel,  X. Xu,  A. Aspuru-Guzik,  R. Baer,  A. T. Bell,  N. A. Besley,  
 J.-D. Chai,  A. Dreuw,  B. D. Dunietz,  T. R. Furlani,  S. R. Gwaltney,  
 C.-P. Hsu,  Y. Jung,  J. Kong,  D. S. Lambrecht,  W. Liang,  C. Ochsenfeld,  
 V. A. Rassolov,  L. V. Slipchenko,  J. E. Subotnik,  T. Van Voorhis,  
 J. M. Herbert,  A. I. Krylov,  P. M. W. Gill,  M. Head-Gordon

 Contributors to earlier versions of Q-Chem not listed above: 
 R. D. Adamson,  J. Baker,  E. F. C. Byrd,  A. K. Chakraborty,  C.-L. Cheng,  
 H. Dachsel,  R. J. Doerksen,  G. Hawkins,  A. Heyden,  S. Hirata,  
 G. Kedziora,  F. J. Keil,  C. Kelley,  P. P. Korambath,  W. Kurlancheek,  
 A. M. Lee,  M. S. Lee,  D. Liotard,  I. Lotan,  P. E. Maslen,  N. Nair,  
 D. Neuhauser,  R. Olson,  B. Peters,  J. Ritchie,  N. E. Schultz,  
 N. Shenvi,  A. C. Simmonett,  K. S. Thanthiriwatte,  Q. Wu,  W. Zhang

 Please cite Q-Chem as follows:
 Y. Shao et al., Mol. Phys. 113, 184-215 (2015)
 DOI: 10.1080/00268976.2014.952696

 Q-Chem 4.4.2 for Intel X86 Linux

 Parts of Q-Chem use Armadillo 5.200.1 (Boston Tea Smuggler).
 http://arma.sourceforge.net/

 Q-Chem begins on Mon Oct 15 01:50:40 2018  

Host: 
0

     Scratch files written to /tmpu/cab_g/afmv_a/scratch_qchem/qchem50809//
 Dec716 11556_ 22328  22283 4050   
Processing $rem in /tmpu/appuserlic/qchem4.4/serial-multicore/config/preferences.
 MEM_TOTAL  2000 
FILE_GEOM_ORG=        593

Checking the input file for inconsistencies... 	...done.

--------------------------------------------------------------
User input:
--------------------------------------------------------------
$comment
SP
$end

$rem
MEM_STATIC 5000
MEM_TOTAL 20000
JOBTYPE SP
EXCHANGE B3LYP
BASIS 6-31g(d,p)
$end

$molecule
0 1
O          -9.332000     13.301000      9.338000
C         -10.638000     13.873000      9.582000
H         -10.998000     14.180000      8.592000
H         -10.553000     14.777000     10.197000
H         -11.240000     13.167000     10.167000
O          -8.651000     14.833000      7.850000
C          -8.465000     13.816000      8.510000
C          -7.209000     12.950000      8.433000
H          -7.595000     11.932000      8.297000
H          -6.755000     13.026000      9.428000
C          -6.321000     13.247000      7.160000
H          -6.459000     14.292000      6.857000
H          -5.300000     13.242000      7.562000
C          -6.416000     12.214000      5.916000
H          -5.463000     12.362000      5.393000
H          -6.635000     11.191000      6.245000
C          -7.483000     12.653000      4.841000
C          -6.962000     13.888000      4.152000
C          -7.399000     15.182000      4.449000
H          -8.209000     15.158000      5.171000
C          -6.878000     16.332000      3.812000
H          -7.182000     17.341000      4.074000
C          -5.729000     16.170000      2.933000
H          -5.245000     17.049000      2.518000
C          -5.393000     14.813000      2.475000
H          -4.583000     14.572000      1.792000
C          -5.914000     13.736000      3.200000
H          -5.713000     12.697000      2.956000
C         -12.656000     13.239000      3.427000
C         -11.593000     12.708000      1.281000
C         -13.322000      8.512000      1.142000
C         -11.730000      9.909000      6.991000
C         -10.514000      6.858000      2.375000
C         -11.550000     13.369000      2.545000
C         -11.455000      7.302000      5.766000
C         -14.306000     10.604000      1.785000
C          -8.434000     10.319000      2.082000
C         -10.415000      9.401000      6.751000
C          -8.032000     11.559000      4.000000
C          -8.179000      9.375000      3.061000
C          -9.245000      8.135000      5.291000
C         -11.432000      6.633000      4.572000
C          -9.450000     12.494000      2.143000
C         -12.933000      6.872000      2.660000
C          -8.912000     12.375000      4.970000
C          -9.601000     11.598000      6.099000
C         -11.818000      7.005000      1.893000
C         -14.651000      9.700000      5.140000
C         -14.639000      8.617000      3.166000
C         -14.852000      9.969000      2.948000
C         -13.795000     11.918000      1.862000
C         -10.832000     12.095000      6.298000
C          -8.427000     11.611000      2.558000
C         -12.718000     11.967000      0.967000
C         -10.330000      8.095000      6.158000
C         -10.304000     12.228000      0.990000
C          -8.705000      8.056000      3.005000
C         -13.204000     11.334000      6.224000
C         -13.539000      9.881000      0.933000
C          -8.065000     10.057000      4.267000
C         -14.317000     11.952000      4.204000
C          -9.191000      7.379000      4.081000
C          -9.293000     10.004000      1.030000
C         -13.495000      7.461000      4.918000
C         -12.672000      7.862000      5.972000
C          -9.755000      8.668000      0.959000
C         -11.922000     11.280000      6.731000
C          -9.401000     10.231000      6.262000
C         -13.794000     10.041000      6.212000
C         -10.062000     13.122000      4.452000
C         -11.305000     10.201000      0.107000
C          -8.689000      9.476000      5.351000
C          -9.473000      7.706000      1.925000
C         -13.522000     12.306000      5.286000
C         -12.072000      7.973000      0.878000
C         -13.761000     12.545000      3.065000
C         -13.845000      7.868000      2.261000
C         -10.193000     10.924000      0.474000
C         -11.017000      8.826000      0.417000
C         -10.273000     13.197000      3.068000
C         -11.136000     13.047000      5.318000
C         -14.470000      8.425000      4.552000
C         -12.590000     10.675000      0.373000
C         -10.306000      6.648000      3.745000
C         -12.819000      9.120000      6.585000
C         -12.727000      6.715000      4.020000
C         -12.448000     13.138000      4.832000
C         -14.863000     10.643000      4.118000
O           4.997000      9.634000      6.286000
C           6.385000      9.798000      5.963000
H           6.893000      8.969000      6.471000
H           6.907000     10.698000      6.311000
H           6.522000      9.635000      4.887000
O           5.294000     10.478000      8.350000
C           4.565000     10.091000      7.472000
C           3.094000      9.856000      7.590000
H           3.035000      9.152000      8.429000
H           2.681000      9.323000      6.724000
C           2.249000     11.118000      7.855000
H           2.565000     11.479000      8.842000
H           2.586000     12.010000      7.312000
C           0.712000     10.888000      7.911000
H           0.588000     10.154000      8.717000
H           0.270000     11.860000      8.159000
C           0.105000     10.463000      6.637000
C           0.271000     11.574000      5.613000
C           1.482000     11.536000      4.858000
H           2.233000     10.771000      5.028000
C           1.739000     12.669000      4.124000
H           2.664000     12.744000      3.559000
C           0.820000     13.773000      4.146000
H           1.050000     14.705000      3.638000
C          -0.408000     13.698000      4.812000
H          -1.074000     14.540000      4.650000
C          -0.707000     12.587000      5.523000
H          -1.655000     12.568000      6.052000
C          -4.572000      8.929000      4.110000
C          -2.905000      7.877000      2.753000
C          -3.728000      3.594000      4.086000
C          -3.942000      7.616000      8.952000
C          -1.092000      3.595000      6.374000
C          -3.292000      9.032000      3.464000
C          -2.960000      5.041000      9.081000
C          -5.271000      5.455000      3.622000
C           0.389000      7.037000      4.972000
C          -2.610000      7.470000      9.261000
C          -0.066000      8.957000      6.270000
C           0.573000      6.677000      6.316000
C          -0.848000      6.228000      8.702000
C          -2.532000      3.966000      8.271000
C          -1.105000      8.649000      3.927000
C          -3.461000      2.937000      6.278000
C          -1.292000      9.778000      6.600000
C          -2.096000      9.363000      7.796000
C          -2.183000      3.034000      5.677000
C          -6.229000      5.888000      6.953000
C          -5.510000      4.149000      5.644000
C          -5.960000      5.168000      4.831000
C          -5.040000      6.738000      3.214000
C          -3.457000      9.530000      7.500000
C          -0.037000      8.343000      4.833000
C          -3.775000      6.766000      2.569000
C          -2.138000      6.145000      9.297000
C          -1.519000      7.643000      2.999000
C           0.318000      5.355000      6.706000
C          -5.513000      8.175000      7.411000
C          -4.167000      4.673000      3.273000
C           0.183000      7.786000      7.141000
C          -6.076000      7.575000      5.152000
C          -0.428000      5.163000      7.891000
C          -0.047000      6.074000      4.029000
C          -4.728000      4.193000      7.929000
C          -4.328000      5.259000      8.791000
C          -0.275000      4.728000      4.394000
C          -4.380000      8.601000      8.062000
C          -1.640000      8.313000      8.623000
C          -5.822000      6.857000      7.848000
C          -2.375000      9.972000      5.541000
C          -1.819000      5.275000      2.881000
C          -0.506000      7.519000      8.354000
C          -0.151000      4.442000      5.742000
C          -5.705000      8.480000      6.091000
C          -2.378000      3.369000      4.303000
C          -5.462000      7.868000      4.009000
C          -4.343000      3.386000      5.272000
C          -0.986000      6.348000      3.024000
C          -1.355000      4.182000      3.651000
C          -2.225000      9.515000      4.220000
C          -3.551000      9.819000      6.127000
C          -5.727000      4.550000      6.988000
C          -3.198000      5.474000      2.657000
C          -1.245000      4.051000      7.700000
C          -4.868000      6.531000      8.813000
C          -3.607000      3.409000      7.580000
C          -4.686000      9.281000      5.465000
C          -6.333000      6.259000      5.603000
$end

--------------------------------------------------------------
 ----------------------------------------------------------------
             Standard Nuclear Orientation (Angstroms)
    I     Atom           X                Y                Z
 ----------------------------------------------------------------
    1      O       3.0017761330    -3.5307968874     4.8466686698
    2      C       4.3193490942    -3.8335858733     5.3611356969
    3      H       4.9320950244    -4.0170018060     4.4695920801
    4      H       4.3002029368    -4.7617774214     5.9448821100
    5      H       4.6262787073    -3.0455355678     6.0595882210
    6      O       2.9785812367    -5.1033865249     3.2493731966
    7      C       2.4517785683    -4.1756986755     3.8546493341
    8      C       1.0860145203    -3.5824616273     3.5137983843
    9      H       1.2701067853    -2.5020849165     3.4617195909
   10      H       0.4625025074    -3.7930219882     4.3906188358
   11      C       0.5622352989    -3.9990904710     2.0822405846
   12      H       0.9752959603    -4.9795361256     1.8158100902
   13      H      -0.4977213407    -4.2206020127     2.2597076495
   14      C       0.6938423723    -2.9152967280     0.8856952654
   15      H      -0.0781050297    -3.2322027904     0.1734384605
   16      H       0.6212448391    -1.8844599902     1.2528957805
   17      C       2.0275212045    -3.0794457847     0.0603523914
   18      C       1.9301429028    -4.3636900034    -0.7223488627
   19      C       2.5571825669    -5.5526022213    -0.3390435043
   20      H       3.1772916731    -5.3948807753     0.5376255563
   21      C       2.4312865542    -6.7559928261    -1.0709664826
   22      H       2.8788136773    -7.6918946290    -0.7501109238
   23      C       1.4806654938    -6.7943421916    -2.1727536334
   24      H       1.2876063726    -7.7348323002    -2.6800292304
   25      C       0.9702322245    -5.5161444848    -2.6921547308
   26      H       0.2866383153    -5.4164277752    -3.5308596522
   27      C       1.0932263447    -4.3879737681    -1.8741704520
   28      H       0.7341571922    -3.4024475985    -2.1557117683
   29      C       7.3865760710    -2.5325377615    -0.2297226883
   30      C       6.7026014286    -2.1372433715    -2.5520420104
   31      C       7.5062296668     2.3257200859    -2.3255098210
   32      C       5.0689735476     0.3790395769     3.0565986511
   33      C       4.2216819472     3.3149204753    -1.7138744171
   34      C       6.5387542277    -2.8474995453    -1.3251939097
   35      C       4.5137594116     2.9254882748     1.7996041037
   36      C       8.7515806960     0.4532923718    -1.4880826483
   37      C       3.0180211375    -0.4822871904    -2.4371894238
   38      C       3.7553593754     0.6172287835     2.5441801616
   39      C       2.4970959085    -1.8606807983    -0.6464923619
   40      C       2.3746638493     0.3459979605    -1.5346169288
   41      C       2.6737108986     1.6794787618     0.8693913521
   42      C       4.5983938892     3.6270143535     0.6272457259
   43      C       4.4315010945    -2.4039700676    -2.1618508495
   44      C       6.4779040300     3.7837055967    -0.9247708606
   45      C       3.3086089908    -2.5208629521     0.4878629797
   46      C       3.5715100368    -1.6692902829     1.7363813132
   47      C       5.5983601814     3.4589575200    -1.9097298978
   48      C       8.1994509974     1.2616748822     1.8636238593
   49      C       8.3690682319     2.4042831288    -0.0690906536
   50      C       8.9004805120     1.1352688614    -0.2364249824
   51      C       8.5221092411    -0.9395384895    -1.5198795544
   52      C       4.8110001808    -1.9121214380     2.1909890705
   53      C       3.1832924754    -1.7678804123    -1.9726203195
   54      C       7.6877476341    -1.1687926418    -2.6219858298
   55      C       3.5233835976     1.9027888668     1.9458219823
   56      C       5.4302269792    -1.9188930596    -3.1088080311
   57      C       2.6130904054     1.7458718888    -1.4791303336
   58      C       6.9343198001    -0.6794522239     2.6187990784
   59      C       8.0431627656     1.0405080440    -2.4831925871
   60      C       2.1593224165    -0.3967918192    -0.3794340816
   61      C       8.5445481648    -0.9680499894     0.8795552935
   62      C       2.7138204402     2.4604352773    -0.3252006894
   63      C       3.9904204293     0.0473274731    -3.2843953760
   64      C       6.6720139928     3.2243157622     1.4013274467
   65      C       5.7516005459     2.6178815539     2.2581370158
   66      C       4.1672155352     1.4513854447    -3.2570878177
   67      C       5.5929606441    -0.9110204473     2.8437896835
   68      C       3.0607431805    -0.3805514734     1.8526890909
   69      C       7.2302719872     0.7061730199     2.7308168753
   70      C       4.6710289159    -2.9934902530     0.2246741082
   71      C       6.1453477511     0.3065354641    -3.7618694120
   72      C       2.4103854073     0.2517796117     0.8114964259
   73      C       3.4969702215     2.2923150657    -2.3729313881
   74      C       7.6352847323    -1.5240156702     1.7696155005
   75      C       6.2532157203     2.6085674906    -2.8476883303
   76      C       8.3723488055    -1.6120473223    -0.3507783262
   77      C       7.6403487313     3.0137093837    -1.1217204695
   78      C       5.1579178290    -0.6439634288    -3.6373864673
   79      C       5.5184397559     1.5786878285    -3.5204491821
   80      C       5.1741875831    -2.9633524687    -1.0835785698
   81      C       5.5030728823    -2.7381612935     1.2977849880
   82      C       7.8811677943     2.4970625508     1.2499112955
   83      C       7.4178062525     0.0943235043    -3.2303880423
   84      C       3.6960430514     3.4180200601    -0.4187534857
   85      C       6.0286672466     1.3910724373     2.8891009092
   86      C       5.9673280406     3.8358225935     0.3610288818
   87      C       6.8765099027    -2.5375520800     1.0996746791
   88      C       8.8103779030     0.4274442070     0.9099444076
   89      O     -10.8310851209    -2.7434416435    -1.1628117779
   90      C     -12.0567696781    -3.1737043560    -1.7713677444
   91      H     -12.8206361820    -2.4891107082    -1.3825123710
   92      H     -12.4393143159    -4.1757536078    -1.5408359743
   93      H     -11.9996233604    -2.9954495202    -2.8521422408
   94      O     -11.3646304115    -3.7194762513     0.7925211521
   95      C     -10.5674796055    -3.1536330627     0.0879176621
   96      C      -9.2349810956    -2.6280269981     0.5135653873
   97      H      -9.4990971966    -1.9640915704     1.3457014537
   98      H      -8.7728891133    -1.9845859068    -0.2460849019
   99      C      -8.2180498053    -3.7007813278     0.9516782715
  100      H      -8.6483907965    -4.1614553506     1.8499722523
  101      H      -8.2414515604    -4.6183317404     0.3503168177
  102      C      -6.8086180694    -3.1638601520     1.3306543031
  103      H      -7.0100663015    -2.4558522093     2.1442336557
  104      H      -6.2340353775    -4.0347374412     1.6669272242
  105      C      -6.0542542098    -2.5685605843     0.2132002360
  106      C      -5.7690754122    -3.6443213317    -0.8221088326
  107      C      -6.7786255625    -3.8220155099    -1.8156999322
  108      H      -7.6915749771    -3.2349914916    -1.8084771741
  109      C      -6.6357091163    -4.9505443438    -2.5867327205
  110      H      -7.3874903103    -5.1885066459    -3.3341776877
  111      C      -5.5309176976    -5.8430652814    -2.3706232647
  112      H      -5.4509063463    -6.7793652529    -2.9151676129
  113      C      -4.5103771123    -5.5475145465    -1.4605069661
  114      H      -3.6642184556    -6.2275736464    -1.4778028700
  115      C      -4.6037975579    -4.4309041164    -0.7030792351
  116      H      -3.8108846610    -4.2414287107     0.0140638528
  117      C      -1.3829104617    -0.0015247243    -1.2707433210
  118      C      -2.9161105034     0.7452913845    -2.9496135756
  119      C      -3.3006223713     5.0438291302    -1.4754932034
  120      C      -3.2595841959     0.9425386550     3.3284602004
  121      C      -6.2924365665     4.4038563765     0.2046626511
  122      C      -2.4514270639    -0.3359660890    -2.1722677214
  123      C      -4.7634704639     3.2540490001     3.2457799876
  124      C      -1.3406920755     3.5598951036    -1.6022963593
  125      C      -6.6985268898     0.7961028820    -1.4762699390
  126      C      -4.6270925236     0.7993341666     3.3493036254
  127      C      -6.1300415621    -1.0448991914    -0.1103399269
  128      C      -7.2272333224     1.0519272505    -0.2015874685
  129      C      -6.4556235649     1.6777367506     2.4302975693
  130      C      -5.2301656366     4.2530023294     2.3630587056
  131      C      -4.7175423203    -0.4290459051    -2.1814759972
  132      C      -4.1458964552     5.5361490968     0.6103962409
  133      C      -4.8546088027    -1.6112943628     0.4714545265
  134      C      -4.4199014900    -1.0931057431     1.8099488696
  135      C      -5.2230487946     5.2060231985    -0.2467231959
  136      C      -1.0222766968     3.1873121657     1.8561147789
  137      C      -1.8029681272     4.7977868173     0.4238245545
  138      C      -0.9918148700     3.9288213812    -0.2752887869
  139      C      -1.2088656804     2.2757976500    -2.0490955661
  140      C      -3.0229659575    -0.9650701856     1.8079453795
  141      C      -5.9894587738    -0.3877946580    -1.5214586717
  142      C      -2.2789395204     2.0177223558    -2.9465213956
  143      C      -5.3628338714     1.9968888592     3.2840929881
  144      C      -4.3406316272     0.6798378487    -3.0017998051
  145      C      -7.3405607726     2.3798564133     0.2326590372
  146      C      -1.3228402718     0.7844628549     2.1540505557
  147      C      -2.4874326940     4.1139405625    -2.1768923768
  148      C      -6.7928450572     0.0112981216     0.6877965044
  149      C      -0.4437394773     1.5848128189     0.0643922754
  150      C      -6.9123738741     2.6685915698     1.5482931008
  151      C      -6.2884960240     1.8680924452    -2.3065873876
  152      C      -3.0130653464     4.4951995478     2.4923483432
  153      C      -3.3504151842     3.3333834228     3.2511489618
  154      C      -6.4274885940     3.2150562727    -1.9024902297
  155      C      -2.4511125941     0.1077214772     2.5515284474
  156      C      -5.2461650912    -0.1956636898     2.5214622022
  157      C      -1.3934217042     2.1174800515     2.6456371858
  158      C      -3.5601886211    -1.5332871627    -0.3350175872
  159      C      -4.5248439975     3.0619710089    -3.0552358396
  160      C      -6.4406103323     0.3604925305     2.0187258651
  161      C      -6.8841924335     3.4106185555    -0.6111912726
  162      C      -0.8029477778     0.5830126152     0.9044831923
  163      C      -4.6828627552     4.9782035485    -1.5484233342
  164      C      -0.7333033832     1.2224871702    -1.1822700159
  165      C      -3.0012020885     5.3213659163    -0.1865378796
  166      C      -5.1261316936     1.8360557701    -3.0906185189
  167      C      -5.3559784526     4.0023090244    -2.4011525620
  168      C      -3.5263739510    -1.0595194058    -1.6581920581
  169      C      -2.5891469865    -1.1686142692     0.4858799854
  170      C      -1.7892056315     4.3914852522     1.7835876338
  171      C      -3.1188777169     3.1592594695    -2.9830432273
  172      C      -6.3246254136     3.9314623713     1.5333570411
  173      C      -2.5727406931     2.1990406720     3.3873727099
  174      C      -4.1764733716     5.0477227909     1.9141633964
  175      C      -1.4801191781    -0.3814620343     0.0780053976
  176      C      -0.5664965046     2.9046256768     0.5586904977
 ----------------------------------------------------------------
 Molecular Point Group                 C1    NOp =  1
 Largest Abelian Subgroup              C1    NOp =  1
 Nuclear Repulsion Energy = 35333.4080452209 hartrees
 There are      462 alpha and      462 beta electrons
 Requested basis set is 6-31G(d,p)
 There are 676 shells and 2360 basis functions

 Total QAlloc Memory Limit  20000 MB
 Mega-Array Size      4888 MB
 MEM_STATIC part      5000 MB
 A cutoff of  1.0D-08 yielded  38937 shell pairs
 There are    543291 function pairs
 
 -------------------------------------------------------
 OpenMP Integral Computing Module                       
 Release: version 1.0, May 2013, Q-Chem Inc. Pittsburgh 
 -------------------------------------------------------
 Integral Job Info:
 Integral job number is                      11
 Integral operator is                         1
 short-range coefficients                     0
 long-range coefficients              100000000
 Omega coefficients                           0
 if combine SR and LR in K                    0
 Integral screening is                        0
 Integral computing path is                   2
 max size of driver memory is            800000
 size of driver memory is                593474
 size of scratch memory is              2260544
 max col of scratch BK array               1296
 max len of scratch array in speh3          155
 max len of scratch index in speh4           18
 max int batch size is                      520
 min int batch size is                       52
 fixed nKL is                                52
 max L of basis functions is                  2
 order of int derivative is                   0
 number of shells is                        676
 number of basis is                        2360
 number of cartesian basis is              2360
 number of contracted shell pairs         38937
 number of primitive shell pairs         116767
 maxK2 (contraction) of shell pair           36
 max number of K2 of shell pair               1
 max number of CS2 of shell pair           7394
 max number of PS2 of shell pair          35172
 mem total for path MDJ                 1544184
 -------------------------------------------------------
 Smallest overlap matrix eigenvalue = 2.33E-04

 Scale SEOQF with 1.000000e-02/1.000000e-02/1.000000e-02

 Standard Electronic Orientation quadrupole field applied
 Nucleus-field energy     =     0.0000001129 hartrees
 Guess from superposition of atomic densities
 Warning:  Energy on first SCF cycle will be non-variational
 A restricted hybrid HF-DFT SCF calculation will be
 performed using Pulay DIIS extrapolation
 Exchange:     0.2000 Hartree-Fock + 0.0800 Slater + 0.7200 B88
 Correlation:  0.1900 VWN1RPA + 0.8100 LYP
 Using SG-1 standard quadrature grid
 SCF converges when DIIS error is below 1.0E-05
 using 16 threads for integral computing 
 -------------------------------------------------------
 OpenMP BLAS3 based DFT computing Module                
 Release: version 1.0, May 2013, Q-Chem Inc. Pittsburgh 
 -------------------------------------------------------
 ---------------------------------------
  Cycle       Energy         DIIS Error
 ---------------------------------------
    1   -5859.0259337661      1.84E-02
    2   -5803.0884635984      1.29E-03
    3   -5802.4590488009      1.72E-03
    4   -5803.9598998828      6.15E-04
    5   -5804.1503591443      3.04E-04
    6   -5804.2115172661      1.32E-04
    7   -5804.2236571133      4.50E-05
    8   -5804.2245491630      2.91E-05
    9   -5804.2251859769      7.89E-06 Convergence criterion met
 ---------------------------------------
 SCF time:  CPU 8480.63 s  wall 872.38 s
 SCF   energy in the final basis set = -5804.2251859769
 Total energy in the final basis set = -5804.2251859769
 
 --------------------------------------------------------------
 
                    Orbital Energies (a.u.)
 --------------------------------------------------------------
 
 Alpha MOs
 -- Occupied --
-19.198 -19.197 -19.136 -19.130 -10.316 -10.314 -10.253 -10.246
-10.246 -10.237 -10.237 -10.237 -10.236 -10.236 -10.235 -10.229
-10.226 -10.225 -10.225 -10.224 -10.224 -10.223 -10.223 -10.221
-10.221 -10.221 -10.221 -10.221 -10.221 -10.220 -10.220 -10.220
-10.219 -10.219 -10.219 -10.219 -10.219 -10.218 -10.218 -10.218
-10.218 -10.218 -10.217 -10.217 -10.217 -10.217 -10.217 -10.217
-10.217 -10.217 -10.217 -10.216 -10.216 -10.216 -10.216 -10.216
-10.216 -10.216 -10.216 -10.216 -10.216 -10.215 -10.215 -10.215
-10.215 -10.214 -10.214 -10.214 -10.214 -10.214 -10.214 -10.214
-10.214 -10.214 -10.214 -10.214 -10.213 -10.213 -10.213 -10.213
-10.213 -10.213 -10.213 -10.213 -10.213 -10.213 -10.213 -10.213
-10.213 -10.212 -10.212 -10.212 -10.212 -10.212 -10.212 -10.212
-10.212 -10.212 -10.212 -10.212 -10.211 -10.211 -10.211 -10.211
-10.211 -10.211 -10.211 -10.211 -10.210 -10.210 -10.210 -10.210
-10.210 -10.210 -10.209 -10.209 -10.209 -10.209 -10.209 -10.209
-10.208 -10.208 -10.208 -10.207 -10.207 -10.207 -10.207 -10.206
-10.206 -10.206 -10.206 -10.205 -10.204 -10.204 -10.203 -10.203
-10.203 -10.202 -10.202 -10.202 -10.202 -10.201 -10.200 -10.199
-10.197 -10.196 -10.195 -10.192  -1.111  -1.108  -1.019  -1.007
 -0.986  -0.984  -0.968  -0.967  -0.966  -0.963  -0.963  -0.961
 -0.937  -0.933  -0.929  -0.928  -0.927  -0.926  -0.926  -0.925
 -0.924  -0.920  -0.897  -0.894  -0.894  -0.893  -0.890  -0.889
 -0.878  -0.876  -0.856  -0.844  -0.843  -0.843  -0.842  -0.841
 -0.838  -0.838  -0.823  -0.817  -0.807  -0.801  -0.800  -0.799
 -0.797  -0.796  -0.794  -0.793  -0.792  -0.792  -0.786  -0.786
 -0.774  -0.774  -0.769  -0.768  -0.767  -0.767  -0.766  -0.764
 -0.761  -0.745  -0.743  -0.742  -0.732  -0.731  -0.719  -0.718
 -0.717  -0.716  -0.715  -0.714  -0.713  -0.712  -0.711  -0.710
 -0.709  -0.708  -0.708  -0.705  -0.703  -0.701  -0.673  -0.673
 -0.662  -0.660  -0.658  -0.657  -0.649  -0.646  -0.632  -0.631
 -0.631  -0.629  -0.628  -0.624  -0.624  -0.619  -0.619  -0.616
 -0.616  -0.615  -0.614  -0.613  -0.613  -0.611  -0.610  -0.607
 -0.606  -0.605  -0.604  -0.602  -0.571  -0.565  -0.565  -0.563
 -0.563  -0.562  -0.560  -0.559  -0.556  -0.556  -0.553  -0.552
 -0.538  -0.536  -0.535  -0.532  -0.531  -0.529  -0.526  -0.526
 -0.524  -0.523  -0.522  -0.519  -0.518  -0.516  -0.516  -0.513
 -0.510  -0.506  -0.502  -0.499  -0.494  -0.493  -0.491  -0.488
 -0.486  -0.485  -0.484  -0.483  -0.482  -0.481  -0.479  -0.476
 -0.475  -0.474  -0.472  -0.472  -0.470  -0.469  -0.469  -0.468
 -0.466  -0.465  -0.464  -0.464  -0.463  -0.462  -0.462  -0.458
 -0.457  -0.454  -0.451  -0.449  -0.448  -0.447  -0.447  -0.445
 -0.443  -0.443  -0.442  -0.439  -0.439  -0.438  -0.437  -0.435
 -0.432  -0.431  -0.430  -0.429  -0.427  -0.426  -0.426  -0.425
 -0.425  -0.424  -0.423  -0.422  -0.421  -0.420  -0.419  -0.419
 -0.419  -0.418  -0.418  -0.417  -0.416  -0.416  -0.415  -0.413
 -0.412  -0.411  -0.410  -0.407  -0.401  -0.399  -0.398  -0.398
 -0.395  -0.395  -0.393  -0.391  -0.390  -0.389  -0.388  -0.383
 -0.382  -0.376  -0.375  -0.372  -0.371  -0.369  -0.367  -0.365
 -0.364  -0.363  -0.363  -0.362  -0.362  -0.361  -0.360  -0.359
 -0.358  -0.356  -0.356  -0.354  -0.354  -0.353  -0.353  -0.353
 -0.350  -0.349  -0.349  -0.348  -0.346  -0.346  -0.344  -0.342
 -0.341  -0.340  -0.340  -0.338  -0.338  -0.337  -0.334  -0.334
 -0.333  -0.332  -0.331  -0.329  -0.328  -0.326  -0.324  -0.321
 -0.312  -0.303  -0.302  -0.301  -0.287  -0.283  -0.275  -0.274
 -0.272  -0.271  -0.269  -0.269  -0.268  -0.268  -0.267  -0.266
 -0.264  -0.263  -0.262  -0.261  -0.259  -0.256  -0.253  -0.251
 -0.248  -0.246  -0.244  -0.239  -0.220  -0.219  -0.215  -0.212
 -0.212  -0.208  -0.207  -0.205  -0.203  -0.194
 -- Virtual --
 -0.127  -0.124  -0.120  -0.118  -0.109  -0.105  -0.080  -0.078
 -0.077  -0.073  -0.060  -0.056  -0.052  -0.046  -0.026  -0.021
 -0.021  -0.019  -0.019  -0.018  -0.017  -0.016  -0.014  -0.014
 -0.011  -0.010  -0.009  -0.006  -0.004  -0.003   0.000   0.009
  0.010   0.017   0.034   0.039   0.042   0.043   0.045   0.047
  0.048   0.052   0.054   0.060   0.061   0.063   0.064   0.066
  0.068   0.073   0.074   0.080   0.083   0.088   0.094   0.095
  0.097   0.098   0.099   0.099   0.102   0.102   0.103   0.105
  0.108   0.111   0.112   0.112   0.115   0.116   0.118   0.120
  0.121   0.123   0.125   0.127   0.129   0.130   0.131   0.134
  0.135   0.138   0.141   0.147   0.149   0.150   0.154   0.155
  0.156   0.160   0.160   0.163   0.165   0.166   0.169   0.169
  0.171   0.172   0.174   0.175   0.176   0.177   0.178   0.179
  0.181   0.184   0.185   0.186   0.188   0.189   0.191   0.192
  0.196   0.200   0.200   0.202   0.204   0.205   0.205   0.208
  0.210   0.212   0.213   0.215   0.216   0.219   0.220   0.221
  0.222   0.222   0.223   0.224   0.225   0.226   0.229   0.232
  0.233   0.234   0.235   0.236   0.237   0.237   0.239   0.240
  0.243   0.245   0.246   0.248   0.250   0.254   0.255   0.257
  0.260   0.264   0.268   0.271   0.274   0.276   0.278   0.282
  0.282   0.286   0.287   0.289   0.293   0.294   0.300   0.303
  0.308   0.312   0.312   0.313   0.314   0.318   0.318   0.319
  0.320   0.322   0.322   0.323   0.326   0.329   0.330   0.333
  0.335   0.339   0.342   0.343   0.344   0.345   0.349   0.351
  0.352   0.354   0.361   0.367   0.374   0.378   0.380   0.382
  0.394   0.399   0.400   0.401   0.405   0.406   0.408   0.411
  0.411   0.412   0.414   0.418   0.419   0.420   0.423   0.425
  0.426   0.428   0.432   0.432   0.434   0.437   0.440   0.443
  0.449   0.449   0.450   0.451   0.453   0.454   0.457   0.461
  0.462   0.465   0.467   0.469   0.471   0.472   0.474   0.476
  0.478   0.480   0.481   0.482   0.482   0.483   0.485   0.486
  0.488   0.488   0.489   0.491   0.491   0.493   0.494   0.496
  0.497   0.498   0.499   0.500   0.500   0.501   0.503   0.504
  0.505   0.506   0.508   0.508   0.509   0.509   0.510   0.511
  0.513   0.513   0.513   0.515   0.515   0.516   0.517   0.518
  0.519   0.520   0.520   0.522   0.522   0.523   0.524   0.524
  0.526   0.528   0.528   0.530   0.531   0.532   0.532   0.533
  0.534   0.535   0.535   0.537   0.538   0.538   0.539   0.540
  0.541   0.541   0.542   0.543   0.544   0.545   0.546   0.547
  0.547   0.548   0.549   0.549   0.550   0.551   0.551   0.552
  0.552   0.553   0.554   0.555   0.557   0.557   0.558   0.559
  0.559   0.561   0.561   0.562   0.564   0.564   0.565   0.565
  0.565   0.567   0.568   0.569   0.569   0.570   0.571   0.571
  0.571   0.572   0.573   0.574   0.576   0.577   0.577   0.578
  0.579   0.580   0.581   0.582   0.582   0.584   0.585   0.585
  0.586   0.587   0.588   0.589   0.590   0.592   0.592   0.593
  0.594   0.595   0.596   0.596   0.598   0.598   0.599   0.601
  0.603   0.604   0.605   0.605   0.606   0.607   0.608   0.609
  0.610   0.611   0.611   0.613   0.615   0.616   0.617   0.618
  0.620   0.621   0.623   0.623   0.624   0.625   0.625   0.628
  0.628   0.629   0.630   0.631   0.632   0.633   0.634   0.635
  0.636   0.637   0.638   0.639   0.640   0.641   0.642   0.642
  0.645   0.645   0.647   0.647   0.648   0.649   0.651   0.651
  0.654   0.655   0.655   0.656   0.657   0.657   0.659   0.659
  0.661   0.661   0.662   0.663   0.663   0.664   0.665   0.666
  0.667   0.667   0.668   0.669   0.670   0.671   0.672   0.673
  0.673   0.674   0.675   0.676   0.677   0.678   0.678   0.679
  0.680   0.683   0.685   0.686   0.687   0.687   0.689   0.690
  0.691   0.691   0.694   0.695   0.695   0.696   0.698   0.700
  0.700   0.702   0.702   0.703   0.705   0.705   0.706   0.708
  0.708   0.710   0.712   0.713   0.713   0.715   0.716   0.717
  0.718   0.719   0.721   0.722   0.724   0.725   0.726   0.727
  0.728   0.729   0.731   0.731   0.734   0.735   0.736   0.737
  0.738   0.741   0.742   0.743   0.745   0.745   0.747   0.748
  0.748   0.749   0.751   0.753   0.754   0.755   0.756   0.758
  0.760   0.761   0.762   0.763   0.764   0.765   0.768   0.769
  0.772   0.773   0.775   0.775   0.776   0.777   0.777   0.779
  0.780   0.781   0.783   0.784   0.786   0.787   0.789   0.789
  0.791   0.792   0.793   0.793   0.794   0.796   0.797   0.798
  0.799   0.800   0.801   0.802   0.804   0.804   0.805   0.806
  0.807   0.808   0.809   0.810   0.810   0.811   0.812   0.813
  0.815   0.815   0.816   0.817   0.818   0.818   0.818   0.820
  0.821   0.821   0.823   0.824   0.826   0.826   0.827   0.828
  0.829   0.830   0.830   0.833   0.833   0.834   0.835   0.838
  0.840   0.842   0.846   0.846   0.847   0.849   0.850   0.851
  0.855   0.857   0.858   0.861   0.863   0.865   0.866   0.870
  0.874   0.876   0.877   0.879   0.885   0.887   0.889   0.893
  0.898   0.900   0.902   0.903   0.908   0.910   0.912   0.915
  0.918   0.919   0.920   0.923   0.924   0.926   0.929   0.930
  0.931   0.932   0.935   0.936   0.938   0.939   0.942   0.942
  0.944   0.945   0.946   0.948   0.950   0.950   0.952   0.955
  0.959   0.961   0.962   0.965   0.967   0.969   0.973   0.974
  0.977   0.981   0.983   0.986   0.988   0.991   0.992   0.994
  0.996   0.997   1.000   1.002   1.004   1.005   1.008   1.009
  1.010   1.012   1.015   1.015   1.017   1.020   1.020   1.022
  1.026   1.026   1.027   1.029   1.030   1.031   1.033   1.035
  1.037   1.037   1.039   1.040   1.044   1.046   1.047   1.048
  1.049   1.051   1.053   1.054   1.055   1.056   1.058   1.061
  1.062   1.065   1.065   1.067   1.070   1.070   1.072   1.074
  1.076   1.078   1.079   1.081   1.082   1.084   1.085   1.087
  1.088   1.090   1.093   1.093   1.096   1.097   1.099   1.101
  1.102   1.104   1.107   1.109   1.111   1.113   1.114   1.116
  1.119   1.120   1.123   1.125   1.127   1.128   1.131   1.132
  1.133   1.135   1.138   1.140   1.143   1.144   1.146   1.148
  1.150   1.151   1.154   1.155   1.156   1.158   1.160   1.162
  1.164   1.165   1.167   1.169   1.172   1.173   1.173   1.176
  1.178   1.181   1.181   1.184   1.185   1.187   1.187   1.189
  1.192   1.194   1.196   1.199   1.200   1.201   1.202   1.205
  1.206   1.209   1.211   1.214   1.216   1.218   1.222   1.224
  1.224   1.226   1.231   1.234   1.238   1.242   1.244   1.246
  1.249   1.250   1.253   1.254   1.256   1.258   1.260   1.263
  1.263   1.265   1.270   1.272   1.272   1.275   1.277   1.278
  1.279   1.280   1.285   1.289   1.291   1.292   1.294   1.296
  1.297   1.299   1.303   1.305   1.308   1.309   1.311   1.313
  1.315   1.321   1.322   1.324   1.329   1.332   1.332   1.334
  1.336   1.338   1.339   1.341   1.344   1.347   1.350   1.351
  1.352   1.355   1.360   1.363   1.367   1.368   1.369   1.370
  1.373   1.374   1.376   1.380   1.383   1.383   1.389   1.390
  1.391   1.393   1.397   1.398   1.400   1.401   1.404   1.407
  1.409   1.411   1.413   1.416   1.420   1.423   1.424   1.425
  1.426   1.433   1.435   1.437   1.440   1.443   1.447   1.448
  1.450   1.453   1.454   1.457   1.458   1.462   1.463   1.464
  1.467   1.468   1.471   1.472   1.474   1.475   1.478   1.480
  1.482   1.483   1.486   1.487   1.490   1.490   1.492   1.498
  1.499   1.501   1.503   1.506   1.509   1.510   1.514   1.518
  1.522   1.525   1.526   1.533   1.534   1.535   1.537   1.541
  1.543   1.546   1.548   1.551   1.553   1.555   1.556   1.560
  1.560   1.562   1.564   1.566   1.568   1.570   1.572   1.575
  1.577   1.578   1.579   1.582   1.588   1.590   1.592   1.594
  1.598   1.599   1.600   1.603   1.606   1.616   1.618   1.619
  1.623   1.628   1.628   1.632   1.637   1.639   1.640   1.647
  1.649   1.652   1.655   1.658   1.666   1.669   1.674   1.679
  1.680   1.681   1.690   1.693   1.694   1.695   1.700   1.701
  1.704   1.705   1.706   1.712   1.715   1.716   1.717   1.718
  1.720   1.723   1.725   1.727   1.729   1.731   1.733   1.736
  1.737   1.738   1.740   1.744   1.744   1.746   1.746   1.748
  1.750   1.752   1.753   1.755   1.755   1.759   1.759   1.761
  1.761   1.764   1.765   1.766   1.767   1.769   1.770   1.771
  1.773   1.774   1.775   1.777   1.778   1.779   1.780   1.781
  1.783   1.783   1.784   1.786   1.787   1.787   1.788   1.789
  1.791   1.791   1.793   1.794   1.794   1.796   1.797   1.798
  1.799   1.799   1.803   1.807   1.807   1.809   1.812   1.813
  1.814   1.816   1.817   1.819   1.820   1.822   1.824   1.827
  1.829   1.830   1.832   1.833   1.835   1.837   1.839   1.842
  1.844   1.845   1.846   1.848   1.849   1.853   1.855   1.857
  1.861   1.863   1.863   1.866   1.867   1.868   1.872   1.872
  1.874   1.876   1.877   1.880   1.882   1.883   1.885   1.887
  1.887   1.889   1.891   1.896   1.900   1.901   1.903   1.904
  1.908   1.912   1.914   1.918   1.921   1.924   1.925   1.926
  1.927   1.929   1.931   1.932   1.936   1.939   1.939   1.941
  1.941   1.943   1.945   1.947   1.948   1.949   1.952   1.953
  1.958   1.959   1.962   1.962   1.963   1.967   1.971   1.972
  1.973   1.977   1.979   1.980   1.981   1.984   1.984   1.986
  1.988   1.989   1.990   1.991   1.993   1.994   1.996   1.997
  1.998   1.999   2.001   2.001   2.003   2.005   2.006   2.008
  2.008   2.010   2.012   2.013   2.014   2.015   2.017   2.019
  2.019   2.022   2.023   2.024   2.024   2.026   2.027   2.028
  2.030   2.031   2.032   2.032   2.034   2.037   2.037   2.037
  2.039   2.042   2.043   2.044   2.044   2.047   2.047   2.049
  2.049   2.051   2.053   2.054   2.055   2.057   2.057   2.058
  2.059   2.060   2.061   2.062   2.063   2.066   2.067   2.069
  2.070   2.073   2.073   2.074   2.075   2.077   2.078   2.080
  2.082   2.082   2.083   2.085   2.085   2.087   2.089   2.091
  2.095   2.097   2.099   2.100   2.102   2.102   2.105   2.106
  2.109   2.113   2.116   2.117   2.118   2.120   2.123   2.125
  2.127   2.131   2.135   2.137   2.140   2.144   2.145   2.148
  2.153   2.156   2.159   2.161   2.165   2.168   2.175   2.178
  2.184   2.185   2.186   2.191   2.191   2.198   2.202   2.204
  2.208   2.211   2.216   2.217   2.219   2.225   2.227   2.228
  2.231   2.232   2.233   2.237   2.240   2.244   2.248   2.250
  2.251   2.254   2.256   2.258   2.260   2.264   2.266   2.266
  2.267   2.270   2.273   2.276   2.279   2.281   2.283   2.283
  2.283   2.285   2.288   2.290   2.293   2.296   2.299   2.301
  2.304   2.306   2.309   2.311   2.316   2.317   2.318   2.320
  2.323   2.325   2.326   2.328   2.334   2.335   2.336   2.339
  2.341   2.345   2.347   2.350   2.352   2.354   2.354   2.359
  2.361   2.363   2.363   2.365   2.367   2.368   2.371   2.373
  2.375   2.376   2.378   2.379   2.381   2.382   2.383   2.387
  2.389   2.390   2.390   2.391   2.394   2.396   2.397   2.398
  2.401   2.401   2.403   2.404   2.407   2.410   2.412   2.412
  2.414   2.415   2.418   2.419   2.420   2.422   2.424   2.427
  2.428   2.432   2.432   2.436   2.439   2.440   2.445   2.446
  2.448   2.451   2.453   2.454   2.456   2.458   2.460   2.462
  2.463   2.465   2.469   2.471   2.474   2.475   2.478   2.478
  2.479   2.481   2.482   2.484   2.486   2.489   2.492   2.495
  2.496   2.499   2.501   2.502   2.505   2.505   2.508   2.510
  2.512   2.514   2.516   2.517   2.519   2.520   2.522   2.524
  2.525   2.530   2.530   2.531   2.535   2.538   2.541   2.541
  2.543   2.546   2.546   2.549   2.551   2.562   2.563   2.567
  2.572   2.573   2.575   2.577   2.579   2.582   2.584   2.586
  2.588   2.591   2.594   2.595   2.600   2.601   2.603   2.605
  2.606   2.612   2.613   2.616   2.617   2.619   2.622   2.624
  2.625   2.626   2.628   2.630   2.632   2.634   2.635   2.637
  2.640   2.641   2.642   2.644   2.645   2.647   2.648   2.648
  2.650   2.653   2.654   2.655   2.656   2.658   2.661   2.662
  2.662   2.664   2.665   2.667   2.670   2.671   2.674   2.675
  2.675   2.677   2.679   2.683   2.683   2.687   2.688   2.690
  2.691   2.693   2.694   2.699   2.701   2.702   2.703   2.705
  2.708   2.711   2.713   2.717   2.718   2.721   2.723   2.725
  2.726   2.730   2.735   2.737   2.740   2.742   2.743   2.748
  2.749   2.752   2.753   2.756   2.758   2.761   2.764   2.765
  2.766   2.767   2.768   2.769   2.771   2.774   2.777   2.778
  2.782   2.782   2.787   2.787   2.792   2.795   2.796   2.798
  2.802   2.802   2.805   2.809   2.813   2.817   2.818   2.820
  2.823   2.826   2.829   2.833   2.835   2.837   2.843   2.845
  2.848   2.849   2.851   2.854   2.856   2.856   2.862   2.865
  2.867   2.871   2.873   2.876   2.877   2.879   2.879   2.882
  2.883   2.884   2.887   2.888   2.891   2.893   2.897   2.898
  2.899   2.901   2.903   2.904   2.904   2.908   2.908   2.909
  2.912   2.913   2.915   2.917   2.918   2.920   2.924   2.925
  2.926   2.930   2.932   2.934   2.935   2.939   2.941   2.941
  2.942   2.945   2.947   2.948   2.950   2.954   2.961   2.962
  2.965   2.968   2.969   2.971   2.974   2.976   2.979   2.981
  2.985   2.987   2.989   2.996   2.998   3.000   3.003   3.006
  3.008   3.015   3.015   3.018   3.019   3.021   3.024   3.028
  3.031   3.034   3.036   3.037   3.038   3.040   3.045   3.046
  3.048   3.055   3.056   3.058   3.060   3.062   3.066   3.070
  3.071   3.078   3.083   3.084   3.085   3.097   3.105   3.114
  3.128   3.136   3.138   3.142   3.147   3.149   3.153   3.161
  3.163   3.165   3.170   3.177   3.182   3.188   3.189   3.190
  3.196   3.204   3.222   3.225   3.230   3.233   3.239   3.240
  3.244   3.252   3.255   3.262   3.263   3.277   3.284   3.306
  3.309   3.311   3.314   3.315   3.326   3.327   3.328   3.337
  3.344   3.347   3.349   3.351   3.359   3.360   3.370   3.380
  3.386   3.403   3.414   3.422   3.429   3.436   3.440   3.448
  3.450   3.463   3.474   3.475   3.480   3.492   3.501   3.502
  3.508   3.511   3.521   3.528   3.532   3.535   3.539   3.548
  3.553   3.555   3.565   3.566   3.569   3.602   3.605   3.606
  3.623   3.647   3.680   3.706   3.803   3.870   4.022   4.025
  4.077   4.079   4.086   4.087   4.090   4.095   4.096   4.099
  4.101   4.105   4.109   4.110   4.113   4.116   4.120   4.123
  4.127   4.130   4.134   4.142   4.147   4.153   4.154   4.158
  4.168   4.171   4.172   4.175   4.176   4.179   4.185   4.187
  4.192   4.193   4.202   4.205   4.213   4.224   4.229   4.242
  4.243   4.248   4.252   4.254   4.257   4.264   4.266   4.268
  4.278   4.279   4.284   4.289   4.291   4.292   4.297   4.301
  4.303   4.310   4.322   4.339   4.368   4.376   4.391   4.396
  4.400   4.401   4.405   4.411   4.415   4.417   4.417   4.420
  4.425   4.426   4.432   4.439   4.446   4.455   4.461   4.469
  4.480   4.493   4.497   4.520   4.532   4.539   4.548   4.554
  4.557   4.566   4.614   4.629   4.631   4.642   4.645   4.649
  4.653   4.662   4.685   4.690   4.693   4.695   4.698   4.702
  4.703   4.713   4.716   4.731   4.743   4.761   4.802   4.813
  4.839   4.845   4.853   4.868   4.874   4.880   4.890   4.899
  4.910   4.914   4.949   4.971   4.975   4.978   4.980   4.989
  4.989   4.992   5.008   5.029   5.157   5.184   5.189   5.202
  5.212   5.221   5.223   5.231   5.302   5.353   5.354   5.359
  5.361   5.390
 --------------------------------------------------------------
 
          Ground-State Mulliken Net Atomic Charges

     Atom                 Charge (a.u.)
  ----------------------------------------
      1 O                    -0.439477
      2 C                    -0.089099
      3 H                     0.140570
      4 H                     0.127863
      5 H                     0.133510
      6 O                    -0.499429
      7 C                     0.590183
      8 C                    -0.269688
      9 H                     0.133390
     10 H                     0.134582
     11 C                    -0.196806
     12 H                     0.140554
     13 H                     0.092325
     14 C                    -0.177837
     15 H                     0.118103
     16 H                     0.107161
     17 C                     0.013857
     18 C                     0.096298
     19 C                    -0.111911
     20 H                     0.118993
     21 C                    -0.101901
     22 H                     0.100516
     23 C                    -0.106256
     24 H                     0.093805
     25 C                    -0.097033
     26 H                     0.093632
     27 C                    -0.107497
     28 H                     0.089027
     29 C                     0.000911
     30 C                     0.004384
     31 C                     0.005664
     32 C                    -0.049016
     33 C                    -0.003569
     34 C                    -0.019308
     35 C                    -0.012369
     36 C                    -0.018386
     37 C                    -0.004043
     38 C                    -0.036241
     39 C                    -0.109007
     40 C                     0.022275
     41 C                    -0.002497
     42 C                     0.027942
     43 C                     0.013864
     44 C                    -0.020247
     45 C                    -0.093997
     46 C                     0.038907
     47 C                     0.027027
     48 C                    -0.023245
     49 C                    -0.009518
     50 C                     0.003582
     51 C                    -0.014821
     52 C                     0.013269
     53 C                     0.027850
     54 C                     0.000353
     55 C                    -0.011231
     56 C                    -0.044130
     57 C                     0.038075
     58 C                     0.022629
     59 C                     0.041930
     60 C                     0.033045
     61 C                    -0.008121
     62 C                    -0.005573
     63 C                    -0.012059
     64 C                    -0.004697
     65 C                     0.016573
     66 C                     0.011494
     67 C                     0.007542
     68 C                     0.006032
     69 C                    -0.030736
     70 C                     0.037085
     71 C                    -0.012243
     72 C                     0.002231
     73 C                    -0.018458
     74 C                    -0.027869
     75 C                    -0.025823
     76 C                     0.032350
     77 C                     0.003420
     78 C                     0.031649
     79 C                    -0.018419
     80 C                     0.021815
     81 C                     0.002363
     82 C                    -0.006143
     83 C                    -0.010446
     84 C                    -0.023771
     85 C                     0.046226
     86 C                     0.000302
     87 C                    -0.014729
     88 C                     0.024689
     89 O                    -0.449922
     90 C                    -0.096958
     91 H                     0.125822
     92 H                     0.138879
     93 H                     0.122694
     94 O                    -0.471011
     95 C                     0.590568
     96 C                    -0.255447
     97 H                     0.136935
     98 H                     0.125838
     99 C                    -0.209898
    100 H                     0.117902
    101 H                     0.118808
    102 C                    -0.176960
    103 H                     0.108073
    104 H                     0.114443
    105 C                     0.022645
    106 C                     0.044770
    107 C                    -0.077250
    108 H                     0.107733
    109 C                    -0.101663
    110 H                     0.089257
    111 C                    -0.082493
    112 H                     0.086068
    113 C                    -0.089103
    114 H                     0.096357
    115 C                    -0.084000
    116 H                     0.096552
    117 C                    -0.015397
    118 C                    -0.000183
    119 C                     0.019330
    120 C                     0.007445
    121 C                     0.006271
    122 C                    -0.022497
    123 C                     0.002729
    124 C                     0.020753
    125 C                     0.038235
    126 C                    -0.029308
    127 C                    -0.097371
    128 C                    -0.005639
    129 C                     0.001975
    130 C                     0.000036
    131 C                     0.007552
    132 C                    -0.024759
    133 C                    -0.122946
    134 C                     0.049048
    135 C                    -0.005153
    136 C                     0.024246
    137 C                     0.009157
    138 C                    -0.027750
    139 C                    -0.020012
    140 C                    -0.046221
    141 C                     0.004507
    142 C                    -0.019560
    143 C                     0.003791
    144 C                    -0.005664
    145 C                    -0.023415
    146 C                    -0.012971
    147 C                    -0.016629
    148 C                     0.053795
    149 C                     0.052681
    150 C                     0.008551
    151 C                    -0.006569
    152 C                    -0.011461
    153 C                     0.011567
    154 C                    -0.010783
    155 C                     0.031577
    156 C                    -0.006384
    157 C                    -0.022678
    158 C                     0.057964
    159 C                     0.031884
    160 C                    -0.022772
    161 C                     0.018100
    162 C                    -0.011172
    163 C                    -0.013580
    164 C                    -0.001404
    165 C                     0.022729
    166 C                    -0.003669
    167 C                    -0.030644
    168 C                     0.002231
    169 C                     0.022206
    170 C                    -0.033425
    171 C                     0.007932
    172 C                    -0.010995
    173 C                    -0.011890
    174 C                     0.022762
    175 C                    -0.012534
    176 C                     0.015546
  ----------------------------------------
  Sum of atomic charges =     0.000000

 -----------------------------------------------------------------
                    Cartesian Multipole Moments
 -----------------------------------------------------------------
    Charge (ESU x 10^10)
                 0.0000
    Dipole Moment (Debye)
         X      -1.8139      Y      -2.4264      Z       0.2544
       Tot       3.0401
    Quadrupole Moments (Debye-Ang)
        XX    -812.6809     XY       6.0222     YY    -801.8389
        XZ      32.8830     YZ       7.6388     ZZ    -795.0227
    Octopole Moments (Debye-Ang^2)
       XXX    -233.7415    XXY     -56.3122    XYY     -74.2406
       YYY    -292.9771    XXZ    -209.9684    XYZ    -138.3888
       YYZ     -56.8872    XZZ     -26.5754    YZZ    -157.5065
       ZZZ     144.1843
    Hexadecapole Moments (Debye-Ang^3)
      XXXX -140801.5125   XXXY    -145.2052   XXYY  -31103.3956
      XYYY     764.3098   YYYY  -42525.4840   XXXZ    4356.8149
      XXYZ    1014.9604   XYYZ     662.2382   YYYZ     500.7947
      XXZZ  -26446.8278   XYZZ     140.5614   YYZZ  -10484.1980
      XZZZ     953.7796   YZZZ    -516.0849   ZZZZ  -20958.3338
 -----------------------------------------------------------------
Archival summary:
1\1\mn251\SP\ProcedureUnspecified\6-31G**\428\afmv_a\MonOct1502:05:282018MonOct1502:05:282018\0\\#,ProcedureUnspecified,6-31G**,\\0,1\C\C,1,1.37913\C,2,1.3809,1,121.433\C,1,1.39016,2,115.983,3,137.977,0\C,4,1.38369,1,107.11,2,-137.286,0\C,5,1.37691,4,113.243,1,-3.24774,0\C,3,1.39114,2,122.282,1,-4.07446,0\C,7,1.34238,3,118.573,2,-134.199,0\C,5,1.39421,4,119.556,1,143.793,0\C,3,1.39865,2,106.26,1,-149.643,0\C,8,1.39969,7,110.316,3,138.367,0\C,11,1.38169,8,107.874,7,-1.5444,0\C,9,1.40198,5,123.127,4,-142.38,0\C,13,1.37621,9,106.243,5,145.786,0\C,14,1.39523,13,120.988,9,-136.25,0\C,15,1.35817,14,121.569,13,132.368,0\C,16,1.35533,15,110.045,14,-143.432,0\C,16,1.40176,15,121.618,14,6.82014,0\C,18,1.38662,16,119.393,15,-5.56651,0\C,18,1.39299,16,120.875,15,-144.47,0\C,12,1.402,11,120.308,8,-137.455,0\C,21,1.39063,12,121.07,11,-8.2634,0\C,11,1.40208,8,119.346,7,-143.913,0\C,13,1.40677,9,120.895,5,2.00426,0\C,24,1.40592,13,117.693,9,130.345,0\C,25,1.38322,24,121.051,13,5.26401,0\C,26,1.4012,25,119.926,24,-139.866,0\C,27,1.35702,26,122.061,25,2.17962,0\C,28,1.35414,27,119.619,26,0.26535,0\C,28,1.39932,27,121.053,26,141.262,0\C,30,1.38855,28,107.382,27,-144.892,0\C,31,1.38771,30,118.642,28,137.022,0\C,32,1.37967,31,119.258,30,-138.574,0\C,20,1.40818,18,108.146,16,145.66,0\C,34,1.35985,20,107.58,18,-6.4072,0\C,34,1.38444,20,117.06,18,-139.554,0\C,36,1.39741,34,119.272,20,-4.98512,0\C,37,1.39608,36,108.331,34,140.944,0\C,38,1.35541,37,107.211,36,3.79249,0\C,39,1.36884,38,110.462,37,-4.28242,0\C,40,1.39715,39,121.642,38,-141.677,0\C,41,1.37495,40,120.972,39,2.35293,0\C,42,1.36099,41,111.152,40,136.019,0\C,43,1.37067,42,107.208,41,3.25754,0\C,44,1.39217,43,118.933,42,-144.059,0\C,45,1.38252,44,122.405,43,136.045,0\C,35,1.39798,34,124.06,20,-140.229,0\C,38,1.4071,37,121.608,36,-143.494,0\C,48,1.39212,38,123.224,37,-1.10604,0\C,48,1.40473,38,123.167,37,140.465,0\C,6,1.41366,5,118.746,4,135.786,0\C,49,1.41418,48,117.905,38,1.71389,0\C,52,1.40665,49,118.714,48,132.028,0\C,53,1.3503,52,107.079,49,-138.837,0\C,54,1.38593,53,110.603,52,0.0556528,0\C,55,1.4094,54,107.819,53,1.59661,0\C,42,1.42778,41,117.254,40,1.10534,0\C,57,1.38943,42,122.896,41,-3.82041,0\C,12,1.46589,11,111.141,8,9.65651,0\C,59,1.46149,12,129.713,11,146.059,0\C,60,1.4851,59,63.1541,12,104.669,0\C,60,1.50711,59,122.292,12,-3.18921,0\C,62,1.39772,60,123.602,59,-50.9044,0\H,63,1.08534,62,110.746,60,4.71473,0\C,63,1.41411,62,122.818,60,-178.607,0\H,65,1.08588,63,122.944,62,177.022,0\C,62,1.42398,60,118.202,59,132.765,0\H,67,1.08603,62,112.863,60,-9.50851,0\C,67,1.39893,62,122.574,60,-177.811,0\H,69,1.08659,67,115.635,62,-178.913,0\C,65,1.45571,63,118.184,62,7.68912,0\H,71,1.08587,65,119.505,63,173.416,0\C,60,1.57697,59,123.261,12,-151.099,0\H,73,1.09669,60,109.212,59,-42.7706,0\H,73,1.09711,60,103.016,59,-166.916,0\C,73,1.61977,60,112.687,59,82.5026,0\H,76,1.09676,73,112.836,60,35.9457,0\H,76,1.0973,73,109.453,60,149.831,0\C,76,1.58028,73,117.766,60,-92.9188,0\H,79,1.09632,76,119.037,73,-134.206,0\H,79,1.09719,76,105.796,73,-11.4953,0\C,79,1.52755,76,113.334,73,101.899,0\O,82,1.22657,79,124.584,76,15.3756,0\O,82,1.3048,79,110.767,76,-162.388,0\C,84,1.4465,82,123.428,79,177.693,0\H,85,1.09666,84,110.523,82,74.1002,0\H,85,1.09684,84,109.328,82,-169.708,0\H,85,1.09725,84,104.754,82,-41.4112,0\C,74,2.83815,73,114.09,60,-112.531,0\C,89,1.40461,74,119.308,73,70.0476,0\C,90,1.38853,89,102.101,74,89.4249,0\C,91,1.33015,90,113.683,89,-0.193493,0\C,92,1.35587,91,108.77,90,-3.93478,0\C,93,1.36832,92,123.897,91,143.757,0\C,94,1.3744,93,120.233,92,-131.979,0\C,95,1.39792,94,109.966,93,142.388,0\C,96,1.37514,95,121.424,94,-149.916,0\C,97,1.40702,96,115.51,95,136.691,0\C,98,1.39325,97,122.978,96,2.07705,0\C,99,1.41241,98,120.879,97,-136.745,0\C,100,1.39404,99,110.775,98,146.142,0\C,101,1.39259,100,121.199,99,-143.415,0\C,100,1.41054,99,117.566,98,-0.358784,0\C,103,1.39302,100,121.852,99,1.60468,0\C,104,1.40298,103,120.64,100,-2.05414,0\C,105,1.38013,104,119.35,103,144.125,0\C,106,1.41023,105,106.219,104,-140.036,0\C,103,1.41054,100,117.389,99,140.248,0\C,108,1.41096,103,120.6,100,2.22297,0\C,102,1.41123,101,119.546,100,127.474,0\C,110,1.35207,102,112.952,101,-141.091,0\C,111,1.38572,110,106.308,102,3.96482,0\C,101,1.41177,100,105.539,99,-2.31342,0\C,107,1.41222,106,124.511,105,139.863,0\C,114,1.40279,107,121.692,106,-136.584,0\C,115,1.40623,114,107.178,107,136.635,0\C,116,1.32279,115,113.383,114,5.75365,0\C,117,1.40584,116,118.263,115,-144.185,0\C,118,1.39403,117,122.721,116,-6.49109,0\C,119,1.41043,118,110.31,117,137.48,0\C,104,1.41337,103,107.641,100,145.769,0\C,121,1.40172,104,117.22,103,-143.68,0\C,122,1.40349,121,118.98,104,134.672,0\C,123,1.38074,122,112.301,121,-147.172,0\C,121,1.40813,104,108.066,103,-6.16338,0\C,125,1.38357,121,124.251,104,-142.46,0\C,126,1.41313,125,115.727,121,7.18225,0\C,127,1.40243,126,105.258,125,141.943,0\C,128,1.36589,127,109.261,126,-5.59176,0\C,128,1.40062,127,116.63,126,-144.94,0\C,129,1.41118,128,120.119,127,-140.497,0\C,131,1.40001,129,121.724,128,139.761,0\C,132,1.39719,131,109.669,129,-142.381,0\C,133,1.36598,132,108.51,131,-1.33228,0\C,92,1.41468,91,124.244,90,139.779,0\C,135,1.38759,92,120.345,91,1.09264,0\C,136,1.37907,135,109.919,92,-142.524,0\C,135,1.40391,92,122.611,91,-141.779,0\C,138,1.38045,135,117.373,92,1.83031,0\C,139,1.39557,138,119.07,135,135.531,0\C,140,1.38205,139,118.105,138,-2.77192,0\C,129,1.41522,128,110.475,127,8.03784,0\C,131,1.41772,129,122.417,128,-0.097543,0\C,113,1.41807,101,122.354,100,-140.523,0\C,106,1.42034,105,120.757,104,-4.39361,0\C,130,1.4299,128,121.92,127,-1.56793,0\C,145,1.4805,106,124.717,105,-141.825,0\C,114,1.49969,107,119.977,106,5.49319,0\C,148,1.55634,114,125.737,107,67.5643,0\C,149,1.47382,148,121.142,114,6.0792,0\H,150,1.0962,149,106.57,148,82.028,0\H,150,1.09716,149,113.301,148,-42.1281,0\C,149,1.52002,148,113.81,114,139.213,0\C,153,1.41094,149,119.475,148,-50.5255,0\H,154,1.08577,153,124.164,149,8.36922,0\C,154,1.3525,153,118.038,149,-166.577,0\H,156,1.08571,154,125.442,153,-178.845,0\C,156,1.39899,154,119.232,153,-3.05339,0\H,158,1.08609,156,117.037,154,176.253,0\C,153,1.42758,149,115.434,148,133.027,0\H,160,1.08542,153,121.524,149,1.14364,0\C,160,1.37422,153,114.782,149,168.286,0\H,162,1.0865,160,119.596,153,-176.987,0\C,150,1.55512,149,114.745,148,-160.993,0\H,164,1.09731,150,116.205,149,-72.0079,0\H,164,1.09743,150,107.509,149,-177.05,0\C,164,1.54172,150,115.266,149,65.7322,0\H,167,1.09682,164,111.373,150,66.8417,0\H,167,1.09755,164,109.081,150,-49.5177,0\C,167,1.49432,164,115.111,150,-177.21,0\O,170,1.20503,167,126.05,164,-65.2672,0\O,170,1.34241,167,109.452,164,123.045,0\C,172,1.43449,170,118.125,167,-178.42,0\H,173,1.09687,172,108.95,170,164.653,0\H,173,1.09698,172,104.916,170,-81.6214,0\H,173,1.09708,172,118.865,170,34.8324,0\\\@

 Total job time:  887.74s(wall), 8507.60s(cpu) 
 Mon Oct 15 02:05:28 2018

        *************************************************************
        *                                                           *
        *  Thank you very much for using Q-Chem.  Have a nice day.  *
        *                                                           *
        *************************************************************


