
Running Job 1 of 1 ./6/19.qcin
qchem ./6/19.qcin_51273.0 /tmpu/cab_g/afmv_a/scratch_qchem/qchem51273/ 1
/tmpu/appuserlic/qchem4.4/serial-multicore/exe/qcprog.exe_s ./6/19.qcin_51273.0 /tmpu/cab_g/afmv_a/scratch_qchem/qchem51273/
Check license passed

                  Welcome to Q-Chem
     A Quantum Leap Into The Future Of Chemistry


 Q-Chem 4.4, Q-Chem, Inc., Pleasanton, CA (2016)

 Y. Shao,  Z. Gan,  E. Epifanovsky,  A. T. B. Gilbert,  M. Wormit,  
 J. Kussmann,  A. W. Lange,  A. Behn,  J. Deng,  X. Feng,  D. Ghosh,  
 M. Goldey,  P. R. Horn,  L. D. Jacobson,  I. Kaliman,  F. Rob,  
 R. Z. Khaliullin,  T. Kus,  A. Landau,  J. Liu,  E. I. Proynov,  Y. M. Rhee,  
 R. M. Richard,  M. A. Rohrdanz,  R. P. Steele,  E. J. Sundstrom,  
 H. L. Woodcock III,  P. M. Zimmerman,  D. Zuev,  B. Albrecht,  E. Alguire,  
 B. Austin,  S. A. Baeppler,  G. J. O. Beran,  Y. A. Bernard,  E. Berquist,  
 K. Brandhorst,  K. B. Bravaya,  S. T. Brown,  D. Casanova,  C.-M. Chang,  
 Y. Chen,  S. H. Chien,  K. D. Closser,  M. P. Coons,  D. L. Crittenden,  
 S. Dasgupta,  M. Diedenhofen,  R. A. DiStasio Jr.,  H. Do,  A. D. Dutoi,  
 R. G. Edgar,  P.-T. Fang,  S. Fatehi,  Q. Feng,  L. Fusti-Molnar,  
 A. Ghysels,  A. Golubeva-Zadorozhnaya,  J. Gomes,  A. Gunina,  
 M. W. D. Hanson-Heine,  P. H. P. Harbach,  A. W. Hauser,  J. E. Herr,  
 E. G. Hohenstein,  Z. C. Holden,  K. Hui,  T.-C. Jagau,  H. Ji,  B. Kaduk,  
 K. Khistyaev,  Jaehoon Kim,  Jihan Kim,  R. A. King,  P. Klunzinger,  
 K. Koh,  D. Kosenkov,  T. Kowalczyk,  C. M. Krauter,  A. Kunitsa,  
 K. U. Lao,  A. Laurent,  K. V. Lawler,  J. Lee,  D. Lefrancois,  S. Lehtola,  
 S. V. Levchenko,  C. Y. Lin,  Y.-S. Lin,  F. Liu,  E. Livshits,  
 R. C. Lochan,  A. Luenser,  P. Manohar,  S. F. Manzer,  S.-P. Mao,  Y. Mao,  
 N. Mardirossian,  A. V. Marenich,  L. A. Martinez-Martinez,  S. A. Maurer,  
 N. J. Mayhall,  J.-M. Mewes,  A. F. Morrison,  K. Nanda,  T. S. Nguyen-Beck,  
 C. M. Oana,  R. Olivares-Amaya,  D. P. O'Neill,  J. A. Parkhill,  
 T. M. Perrine,  R. Peverati,  P. A. Pieniazek,  F. Plasser,  A. Prociuk,  
 D. R. Rehn,  E. Rosta,  N. J. Russ,  N. Sergueev,  S. M. Sharada,  
 S. Sharma,  D. W. Small,  A. Sodt,  T. Stauch,  T. Stein,  D. Stuck,  
 Y.-C. Su,  A. J. W. Thom,  T. Tsuchimochi,  L. Vogt,  O. Vydrov,  T. Wang,  
 M. A. Watson,  J. Wenzel,  A. White,  C. F. Williams,  V. Vanovschi,  
 K. Yao,  S. Yeganeh,  S. R. Yost,  Z.-Q. You,  I. Y. Zhang,  X. Zhang,  
 Y. Zhao,  B. R. Brooks,  G. K. L. Chan,  D. M. Chipman,  C. J. Cramer,  
 W. A. Goddard III,  M. S. Gordon,  W. J. Hehre,  A. Klamt,  
 H. F. Schaefer III,  M. W. Schmidt,  C. D. Sherrill,  D. G. Truhlar,  
 A. Warshel,  X. Xu,  A. Aspuru-Guzik,  R. Baer,  A. T. Bell,  N. A. Besley,  
 J.-D. Chai,  A. Dreuw,  B. D. Dunietz,  T. R. Furlani,  S. R. Gwaltney,  
 C.-P. Hsu,  Y. Jung,  J. Kong,  D. S. Lambrecht,  W. Liang,  C. Ochsenfeld,  
 V. A. Rassolov,  L. V. Slipchenko,  J. E. Subotnik,  T. Van Voorhis,  
 J. M. Herbert,  A. I. Krylov,  P. M. W. Gill,  M. Head-Gordon

 Contributors to earlier versions of Q-Chem not listed above: 
 R. D. Adamson,  J. Baker,  E. F. C. Byrd,  A. K. Chakraborty,  C.-L. Cheng,  
 H. Dachsel,  R. J. Doerksen,  G. Hawkins,  A. Heyden,  S. Hirata,  
 G. Kedziora,  F. J. Keil,  C. Kelley,  P. P. Korambath,  W. Kurlancheek,  
 A. M. Lee,  M. S. Lee,  D. Liotard,  I. Lotan,  P. E. Maslen,  N. Nair,  
 D. Neuhauser,  R. Olson,  B. Peters,  J. Ritchie,  N. E. Schultz,  
 N. Shenvi,  A. C. Simmonett,  K. S. Thanthiriwatte,  Q. Wu,  W. Zhang

 Please cite Q-Chem as follows:
 Y. Shao et al., Mol. Phys. 113, 184-215 (2015)
 DOI: 10.1080/00268976.2014.952696

 Q-Chem 4.4.2 for Intel X86 Linux

 Parts of Q-Chem use Armadillo 5.200.1 (Boston Tea Smuggler).
 http://arma.sourceforge.net/

 Q-Chem begins on Mon Oct 15 03:17:15 2018  

Host: 
0

     Scratch files written to /tmpu/cab_g/afmv_a/scratch_qchem/qchem51273//
 Dec716 11556_ 22328  22283 4050   
Processing $rem in /tmpu/appuserlic/qchem4.4/serial-multicore/config/preferences.
 MEM_TOTAL  2000 
FILE_GEOM_ORG=        593

Checking the input file for inconsistencies... 	...done.

--------------------------------------------------------------
User input:
--------------------------------------------------------------
$comment
SP
$end

$rem
MEM_STATIC 5000
MEM_TOTAL 20000
JOBTYPE SP
EXCHANGE B3LYP
BASIS 6-31g(d,p)
$end

$molecule
0 1
O          11.485000     -6.349000      8.764000
C          10.119000     -6.397000      8.205000
H           9.569000     -7.278000      8.560000
H          10.177000     -6.203000      7.127000
H           9.612000     -5.487000      8.549000
O          11.836000     -8.611000      8.237000
C          12.232000     -7.491000      8.600000
C          13.616000     -7.351000      9.178000
H          13.859000     -8.274000      9.719000
H          13.579000     -6.527000      9.901000
C          14.708000     -6.903000      8.103000
H          14.643000     -7.594000      7.254000
H          14.414000     -5.922000      7.710000
C          16.135000     -7.053000      8.662000
H          16.182000     -6.292000      9.451000
H          16.124000     -8.115000      8.938000
C          17.126000     -6.820000      7.586000
C          17.328000     -8.072000      6.808000
C          18.197000     -9.059000      7.390000
H          18.579000     -8.983000      8.404000
C          18.469000    -10.219000      6.654000
H          19.048000    -11.054000      7.037000
C          18.051000    -10.350000      5.307000
H          18.335000    -11.264000      4.794000
C          17.154000     -9.387000      4.774000
H          16.847000     -9.379000      3.732000
C          16.756000     -8.295000      5.539000
H          16.025000     -7.614000      5.114000
C          22.181000     -4.911000      6.994000
C          21.260000     -4.600000      4.727000
C          20.978000     -0.035000      5.199000
C          19.273000     -2.768000     10.617000
C          17.544000     -0.093000      5.903000
C          21.364000     -5.372000      5.943000
C          18.063000     -0.451000      9.469000
C          22.655000     -1.565000      5.890000
C          17.233000     -4.023000      5.054000
C          17.973000     -2.862000     10.132000
C          17.287000     -5.479000      6.987000
C          16.523000     -3.393000      6.083000
C          16.565000     -2.163000      8.582000
C          17.961000      0.310000      8.231000
C          19.183000     -5.469000      5.225000
C          19.689000      0.767000      6.747000
C          18.291000     -5.949000      7.965000
C          18.452000     -5.128000      9.193000
C          18.851000      0.397000      5.666000
C          22.087000     -1.008000      9.339000
C          21.932000      0.178000      7.474000
C          22.747000     -0.907000      7.144000
C          22.824000     -2.932000      5.721000
C          19.730000     -4.946000      9.561000
C          17.770000     -5.193000      5.590000
C          21.949000     -3.401000      4.701000
C          17.319000     -1.687000      9.644000
C          19.896000     -4.628000      4.350000
C          16.464000     -2.035000      6.118000
C          21.429000     -3.246000     10.008000
C          21.784000     -1.129000      4.935000
C          16.497000     -4.210000      7.229000
C          22.949000     -3.090000      8.119000
C          16.489000     -1.390000      7.365000
C          18.003000     -3.144000      4.210000
C          20.127000      0.436000      9.107000
C          19.420000     -0.395000      9.922000
C          17.883000     -1.744000      4.219000
C          20.181000     -3.810000     10.249000
C          17.569000     -4.006000      9.422000
C          21.334000     -1.824000     10.181000
C          19.708000     -6.049000      7.530000
C          19.996000     -2.310000      3.705000
C          16.696000     -3.534000      8.460000
C          17.051000     -1.146000      5.170000
C          22.230000     -3.892000      8.967000
C          19.670000     -0.119000      4.656000
C          22.919000     -3.705000      6.895000
C          21.037000      0.528000      6.468000
C          19.300000     -3.479000      3.862000
C          19.167000     -1.212000      3.995000
C          20.121000     -5.916000      6.165000
C          20.506000     -5.511000      8.582000
C          21.464000      0.103000      8.787000
C          21.296000     -2.245000      4.161000
C          17.139000     -0.201000      7.206000
C          20.009000     -1.566000     10.497000
C          19.259000      0.838000      8.059000
C          21.761000     -5.030000      8.280000
C          22.888000     -1.676000      8.300000
O          19.161000      8.508000     -1.816000
C          19.432000      9.918000     -1.483000
H          19.510000     10.076000     -0.401000
H          18.601000     10.548000     -1.824000
H          20.376000     10.258000     -1.926000
O          21.251000      7.794000     -1.049000
C          20.184000      7.607000     -1.531000
C          19.756000      6.268000     -2.032000
H          20.596000      6.031000     -2.696000
H          18.960000      6.356000     -2.781000
C          19.321000      5.169000     -0.988000
H          20.153000      5.165000     -0.272000
H          18.418000      5.489000     -0.453000
C          19.223000      3.838000     -1.743000
H          18.458000      3.923000     -2.525000
H          20.156000      3.692000     -2.301000
C          18.833000      2.704000     -0.723000
C          19.774000      2.726000      0.493000
C          21.131000      2.345000      0.429000
H          21.652000      2.165000     -0.507000
C          21.858000      2.147000      1.605000
H          22.864000      1.742000      1.566000
C          21.343000      2.412000      2.891000
H          21.907000      2.287000      3.811000
C          20.010000      2.883000      2.906000
H          19.660000      3.011000      3.926000
C          19.178000      3.004000      1.765000
H          18.117000      3.218000      1.854000
C          18.590000     -2.686000     -0.417000
C          16.860000     -2.097000      1.145000
C          13.525000     -3.543000     -1.626000
C          18.016000     -0.642000     -4.926000
C          12.822000     -0.276000     -2.814000
C          18.091000     -1.775000      0.549000
C          15.358000     -0.342000     -5.528000
C          15.589000     -4.612000     -1.087000
C          15.252000      1.374000     -0.051000
C          17.430000      0.598000     -4.683000
C          17.362000      2.081000     -0.772000
C          15.079000      1.949000     -1.382000
C          15.563000      1.667000     -4.033000
C          14.026000     -0.556000     -4.950000
C          17.053000      0.205000      0.881000
C          13.243000     -2.544000     -3.661000
C          18.604000      1.321000     -1.272000
C          18.736000      1.011000     -2.763000
C          12.812000     -1.666000     -2.663000
C          16.928000     -3.860000     -4.224000
C          14.884000     -4.314000     -3.435000
C          15.805000     -4.697000     -2.483000
C          16.692000     -4.124000     -0.229000
C          19.302000     -0.217000     -2.963000
C          16.570000      1.346000      0.289000
C          16.150000     -3.270000      0.747000
C          16.101000      0.727000     -4.986000
C          16.200000     -0.877000      1.248000
C          14.015000      1.525000     -2.175000
C          18.853000     -2.452000     -3.860000
C          14.461000     -3.959000     -0.631000
C          16.322000      2.354000     -1.820000
C          18.166000     -4.028000     -2.152000
C          14.241000      1.332000     -3.561000
C          14.395000      0.378000      0.392000
C          15.100000     -2.629000     -5.258000
C          15.960000     -1.590000     -5.730000
C          13.312000     -0.043000     -0.421000
C          18.944000     -1.097000     -4.012000
C          17.765000      1.453000     -3.616000
C          17.787000     -2.847000     -4.668000
C          18.992000      0.050000     -0.645000
C          14.101000     -1.927000      0.609000
C          16.607000      2.124000     -3.168000
C          13.138000      0.513000     -1.711000
C          19.073000     -3.065000     -2.568000
C          12.922000     -2.271000     -1.466000
C          17.962000     -3.873000     -0.800000
C          13.686000     -3.726000     -3.027000
C          14.822000     -0.772000      1.005000
C          13.188000     -1.470000     -0.276000
C          18.230000     -0.418000      0.444000
C          19.443000     -0.824000     -1.684000
C          15.550000     -3.777000     -4.516000
C          14.761000     -3.163000      0.455000
C          13.502000      0.252000     -3.999000
C          17.289000     -1.730000     -5.363000
C          13.895000     -1.993000     -4.787000
C          19.303000     -2.183000     -1.522000
C          17.092000     -4.428000     -2.970000
$end

--------------------------------------------------------------
 ----------------------------------------------------------------
             Standard Nuclear Orientation (Angstroms)
    I     Atom           X                Y                Z
 ----------------------------------------------------------------
    1      O       6.5805341441    -5.4818523220     4.8341791636
    2      C       5.9386270984    -6.5204711344     5.6648218708
    3      H       6.5828518336    -7.4020028387     5.7769037370
    4      H       4.9065633807    -6.6545506801     5.3184822136
    5      H       5.7662780298    -6.0667412101     6.6486460189
    6      O       7.1850727082    -7.0750304273     3.2174260441
    7      C       7.0468763825    -5.9055591332     3.6126774425
    8      C       7.6660730080    -4.7829591048     2.8217888819
    9      H       8.5923896171    -5.1528026790     2.3648290693
   10      H       7.9258049636    -3.9929533031     3.5369840612
   11      C       6.6504263009    -4.0929759482     1.8014075756
   12      H       6.2064637022    -4.8848659907     1.1863349201
   13      H       5.8220532024    -3.6692464552     2.3823527765
   14      C       7.3897354531    -3.1618094909     0.8228060193
   15      H       7.7467586578    -2.3470956080     1.4651662922
   16      H       8.1135524791    -3.8666641848     0.3945423467
   17      C       6.4581133907    -2.6918426729    -0.2285538253
   18      C       6.3645241922    -3.7096127038    -1.3097463272
   19      C       7.4341215136    -3.7287431797    -2.2708132317
   20      H       8.3421362785    -3.1442805614    -2.1533030857
   21      C       7.3446044380    -4.6238352219    -3.3441616976
   22      H       8.1334859080    -4.7678976246    -4.0763276968
   23      C       6.1631755775    -5.3671253421    -3.5850758834
   24      H       6.1603864694    -6.0100957491    -4.4601771784
   25      C       5.1442119469    -5.3686500277    -2.5962494099
   26      H       4.1827471029    -5.8534689658    -2.7398215213
   27      C       5.2744447856    -4.5926173013    -1.4486843289
   28      H       4.4993815604    -4.6671763636    -0.6920701979
   29      C       5.7003977670     1.6500517670    -3.4099984196
   30      C       3.4439003581     0.6543873549    -3.3764898786
   31      C       1.7550063001     3.9611678900    -0.6645952728
   32      C       7.5630873927     2.4763298854     1.2828358870
   33      C       1.9742908264     2.0064151019     2.2375060063
   34      C       4.8800779156     0.5048217177    -3.3984020572
   35      C       5.3483118647     3.0958208600     2.9744307833
   36      C       3.2678216134     4.0736937341    -2.4892699731
   37      C       2.9685534612    -1.3096980514     0.1693528766
   38      C       7.0155769071     1.4660956030     2.0662386972
   39      C       5.3414339200    -1.7836490852     0.1049343557
   40      C       3.5023692496    -0.9879497675     1.4228917655
   41      C       5.1551213743     0.6620382262     2.9413169480
   42      C       3.8979576754     3.2321952410     2.9810454501
   43      C       4.0184312752    -1.1178881957    -2.0177965364
   44      C       2.5966153316     4.2023165233     1.3189799274
   45      C       6.5428692261    -1.2262947294    -0.5518070905
   46      C       7.2743103848    -0.1703564916     0.1951428874
   47      C       1.7059328057     3.1021254790     1.3819823408
   48      C       5.9880637412     5.1297116514    -0.4858771199
   49      C       3.7850421280     5.3633232668    -0.4547743090
   50      C       4.0875231839     4.9752373613    -1.7617726030
   51      C       3.7597023539     3.1275683703    -3.3773640747
   52      C       7.6759179252     0.8569289192    -0.5698591180
   53      C       4.0391412345    -1.6807636288    -0.6434922235
   54      C       2.9631338024     1.9497095814    -3.3132297155
   55      C       5.9704886158     1.7826194919     2.9904075622
   56      C       2.9537846367    -0.3156855208    -2.4697626894
   57      C       2.9100364282    -0.0194108583     2.1711859656
   58      C       7.5113263725     3.2784567618    -0.8623014678
   59      C       2.1186903489     3.5800412370    -1.9446907329
   60      C       4.8809671793    -1.2708378429     1.4532740794
   61      C       5.9631418398     3.7827325591    -2.6656005481
   62      C       3.7210999771     0.8293001681     2.9415913870
   63      C       1.9211396006    -0.4355669504    -0.2961533243
   64      C       4.8840142460     4.9126240918     1.6854145933
   65      C       5.8919251280     4.1040822832     2.1155434086
   66      C       1.2792070523     0.5186274264     0.5112602591
   67      C       7.8241322378     2.1660519440    -0.0887453858
   68      C       6.8574378283     0.1737071506     1.5363555781
   69      C       7.0072619841     4.3116259036    -0.0023487848
   70      C       6.3810672225    -0.5522855585    -1.8658260209
   71      C       1.3458275623     1.2572853732    -1.6098873418
   72      C       5.6855535199    -0.2968323903     2.0981711245
   73      C       1.7434855223     0.7191906773     1.8145057788
   74      C       6.9855263665     2.9975885202    -2.1991804393
   75      C       1.1507789502     2.9365466198     0.1085991156
   76      C       5.1581466314     2.9595715328    -3.4083586778
   77      C       2.6269124555     4.7771281425     0.0458971780
   78      C       1.9277212433     0.0175314163    -1.6038981587
   79      C       1.0004055098     1.6346931980    -0.3002339757
   80      C       5.1676700696    -0.5953495198    -2.6256258922
   81      C       7.1649799143     0.6379306311    -1.8231843347
   82      C       4.9193872017     5.3999368634     0.3579610097
   83      C       1.8808977017     2.2378851143    -2.4187662535
   84      C       3.1226341034     2.0547814260     2.9807868528
   85      C       7.0038686875     3.7756106795     1.2762133627
   86      C       3.6686053772     4.3690040932     2.1759149285
   87      C       6.8368565961     1.6761985032    -2.6669407651
   88      C       5.4740058365     4.8333066196    -1.8331835170
   89      O      -8.5365340649     7.0696616712     2.4843769926
   90      C      -8.8483116222     8.3658609557     3.1129405691
   91      H      -7.9553902470     8.8427469868     3.5337055048
   92      H      -9.5385893817     8.2166309168     3.9525768059
   93      H      -9.2757085700     9.0684105603     2.3871713895
   94      O      -7.2752017687     8.0564012681     0.7809772138
   95      C      -7.7488290595     7.1224811881     1.3370819464
   96      C      -7.6370886566     5.7329381170     0.8043623804
   97      H      -8.0108122920     5.8847908064    -0.2154103418
   98      H      -8.4372542119     5.0901890821     1.1903283923
   99      C      -6.2716256623     4.9619449972     0.9718210929
  100      H      -5.5341866698     5.6788597651     0.5882680354
  101      H      -6.0572407496     4.7947450028     2.0348908324
  102      C      -6.3465066495     3.7081058136     0.0923495815
  103      H      -7.1705673349     3.0727120941     0.4404484296
  104      H      -6.6563571566     4.0145950861    -0.9142416906
  105      C      -4.9807381631     2.9322580629     0.1981451831
  106      C      -3.8002541105     3.8800613089    -0.0715720918
  107      C      -3.5147026788     4.4186122313    -1.3440222024
  108      H      -4.1940972549     4.3369508716    -2.1876402630
  109      C      -2.2964366292     5.0618228305    -1.5738416047
  110      H      -2.0217155565     5.3737467190    -2.5762456250
  111      C      -1.3459725095     5.3107209569    -0.5619554057
  112      H      -0.4070574973     5.8328922325    -0.7228801054
  113      C      -1.7125879132     4.8387069790     0.7193528907
  114      H      -0.9141553423     5.0119505811     1.4347381603
  115      C      -2.8781426308     4.0845203582     1.0047136120
  116      H      -3.0289794405     3.6132623712     1.9714618556
  117      C      -2.2966071764    -1.0772299735    -2.2358292482
  118      C      -1.4010479375    -1.2597946734    -0.0122490764
  119      C      -3.6065800526    -5.1758053679     0.8196585689
  120      C      -7.2742810766    -1.2383564246    -2.4236957160
  121      C      -6.2242528615    -3.5595868052     2.5844442849
  122      C      -1.9195072223    -0.4378575392    -1.0270792679
  123      C      -8.2730928165    -2.8306087663    -0.4275805918
  124      C      -2.3887020514    -4.5311057703    -1.1282925607
  125      C      -4.2311671358    -0.0541023954     2.5569244199
  126      C      -7.6952708498    -0.6207975471    -1.2483516626
  127      C      -4.9249081490     1.5553117107     1.0076343755
  128      C      -5.6880952553    -0.1246365926     2.4898395364
  129      C      -7.8393061338    -0.8000626244     0.9872842355
  130      C      -7.8320935786    -3.6408763957     0.7139491016
  131      C      -2.6539237529     0.4690062244     0.9084564393
  132      C      -5.8906576237    -5.2066216790     0.7915515547
  133      C      -4.8665834936     1.6192153349    -0.5294663243
  134      C      -6.0253165906     1.0420370365    -1.3423671927
  135      C      -5.4618715587    -4.5402625740     1.9425324641
  136      C      -5.3310899538    -4.0628939629    -2.9510172068
  137      C      -4.6838456063    -5.4266353121    -1.2993945842
  138      C      -3.5551616337    -4.8642179924    -1.8570622708
  139      C      -1.7152763734    -3.2457151504    -1.4201586436
  140      C      -5.5743164907     0.4333871470    -2.4801212179
  141      C      -3.7540440678     0.8358985130     1.6438198470
  142      C      -1.3088646805    -2.6716988416    -0.2031989840
  143      C      -8.1869180587    -1.4328854162    -0.2616970549
  144      C      -1.9457445399    -0.7429939229     1.1585761008
  145      C      -6.3283198267    -1.3203063293     2.8079706082
  146      C      -5.4083172206    -1.7400220436    -3.5982320053
  147      C      -2.4231127911    -4.6158761704     0.2495168892
  148      C      -6.1032665091     0.8112126762     1.5664019499
  149      C      -3.2719920844    -2.8235733391    -3.2307534316
  150      C      -7.4357287180    -1.7234756211     2.0203024866
  151      C      -3.4954195760    -1.1835791113     2.8819965296
  152      C      -7.0298314680    -4.5867376035    -1.2878978160
  153      C      -7.8102976545    -3.4323052232    -1.6042258279
  154      C      -4.1570240100    -2.3945459214     3.2090102260
  155      C      -6.1456060024    -0.7353630696    -3.0374507660
  156      C      -7.0996275333     0.5206758125    -0.6791534469
  157      C      -6.0751801616    -2.9200213469    -3.2693848342
  158      C      -3.6884688270     1.1086851418    -1.2439722755
  159      C      -2.2952566532    -2.9904119307     2.0208843874
  160      C      -7.1530028406     0.4282904577     0.7281578274
  161      C      -5.5692784074    -2.4677505713     3.1482599488
  162      C      -3.9627109047    -1.6796480452    -3.6014506574
  163      C      -4.1174483900    -4.5692975681     1.9936921420
  164      C      -2.1746105700    -2.4445220462    -2.4920932058
  165      C      -4.7398680350    -5.6160417267     0.0820534595
  166      C      -2.3796698515    -1.5854938728     2.1934000754
  167      C      -3.3973759220    -3.4743061119     2.6347431161
  168      C      -2.6102397463     0.6114431052    -0.4851828406
  169      C      -4.1527563493     0.4457161321    -2.4236786749
  170      C      -5.7982798253    -4.9356879481    -1.9455316110
  171      C      -1.7883106145    -3.5336902941     0.8230253248
  172      C      -7.4246377403    -3.0966987841     1.8842872864
  173      C      -7.2571829309    -2.6097562112    -2.5727335591
  174      C      -7.0528987631    -4.7270666615     0.1467232683
  175      C      -3.4109399701    -0.5891723503    -2.9446770324
  176      C      -3.9464100875    -4.0150583033    -2.9019313869
 ----------------------------------------------------------------
 Molecular Point Group                 C1    NOp =  1
 Largest Abelian Subgroup              C1    NOp =  1
 Nuclear Repulsion Energy = 34417.9297228913 hartrees
 There are      462 alpha and      462 beta electrons
 Requested basis set is 6-31G(d,p)
 There are 676 shells and 2360 basis functions

 Total QAlloc Memory Limit  20000 MB
 Mega-Array Size      4888 MB
 MEM_STATIC part      5000 MB
 A cutoff of  1.0D-08 yielded  37061 shell pairs
 There are    523352 function pairs
 
 -------------------------------------------------------
 OpenMP Integral Computing Module                       
 Release: version 1.0, May 2013, Q-Chem Inc. Pittsburgh 
 -------------------------------------------------------
 Integral Job Info:
 Integral job number is                      11
 Integral operator is                         1
 short-range coefficients                     0
 long-range coefficients              100000000
 Omega coefficients                           0
 if combine SR and LR in K                    0
 Integral screening is                        0
 Integral computing path is                   2
 max size of driver memory is            800000
 size of driver memory is                593474
 size of scratch memory is              2260544
 max col of scratch BK array               1296
 max len of scratch array in speh3          155
 max len of scratch index in speh4           18
 max int batch size is                      520
 min int batch size is                       52
 fixed nKL is                                52
 max L of basis functions is                  2
 order of int derivative is                   0
 number of shells is                        676
 number of basis is                        2360
 number of cartesian basis is              2360
 number of contracted shell pairs         37061
 number of primitive shell pairs         112823
 maxK2 (contraction) of shell pair           36
 max number of K2 of shell pair               1
 max number of CS2 of shell pair           7143
 max number of PS2 of shell pair          34290
 mem total for path MDJ                 1491976
 -------------------------------------------------------
 Smallest overlap matrix eigenvalue = 2.45E-04

 Scale SEOQF with 1.000000e-02/1.000000e-02/1.000000e-02

 Standard Electronic Orientation quadrupole field applied
 Nucleus-field energy     =     0.0000001342 hartrees
 Guess from superposition of atomic densities
 Warning:  Energy on first SCF cycle will be non-variational
 A restricted hybrid HF-DFT SCF calculation will be
 performed using Pulay DIIS extrapolation
 Exchange:     0.2000 Hartree-Fock + 0.0800 Slater + 0.7200 B88
 Correlation:  0.1900 VWN1RPA + 0.8100 LYP
 Using SG-1 standard quadrature grid
 SCF converges when DIIS error is below 1.0E-05
 using 16 threads for integral computing 
 -------------------------------------------------------
 OpenMP BLAS3 based DFT computing Module                
 Release: version 1.0, May 2013, Q-Chem Inc. Pittsburgh 
 -------------------------------------------------------
 ---------------------------------------
  Cycle       Energy         DIIS Error
 ---------------------------------------
    1   -5858.5773456717      1.83E-02
    2   -5803.0712239315      1.29E-03
    3   -5802.3268745878      1.77E-03
    4   -5803.9409084538      6.33E-04
    5   -5804.1551015558      2.89E-04
    6   -5804.2062846383      1.34E-04
    7   -5804.2181544163      4.78E-05
    8   -5804.2192142095      2.95E-05
    9   -5804.2198478277      8.96E-06 Convergence criterion met
 ---------------------------------------
 SCF time:  CPU 8123.18 s  wall 840.78 s
 SCF   energy in the final basis set = -5804.2198478277
 Total energy in the final basis set = -5804.2198478277
 
 --------------------------------------------------------------
 
                    Orbital Energies (a.u.)
 --------------------------------------------------------------
 
 Alpha MOs
 -- Occupied --
-19.198 -19.191 -19.142 -19.132 -10.315 -10.313 -10.251 -10.248
-10.245 -10.244 -10.240 -10.235 -10.233 -10.233 -10.232 -10.230
-10.228 -10.227 -10.226 -10.225 -10.224 -10.224 -10.224 -10.223
-10.223 -10.223 -10.222 -10.222 -10.222 -10.222 -10.221 -10.220
-10.220 -10.220 -10.220 -10.219 -10.219 -10.219 -10.219 -10.219
-10.219 -10.219 -10.219 -10.219 -10.219 -10.218 -10.218 -10.218
-10.218 -10.218 -10.218 -10.218 -10.218 -10.217 -10.217 -10.217
-10.217 -10.217 -10.217 -10.216 -10.216 -10.216 -10.216 -10.216
-10.216 -10.216 -10.216 -10.216 -10.216 -10.216 -10.216 -10.216
-10.216 -10.215 -10.215 -10.215 -10.215 -10.215 -10.215 -10.215
-10.215 -10.215 -10.215 -10.215 -10.215 -10.214 -10.214 -10.214
-10.214 -10.214 -10.214 -10.214 -10.214 -10.214 -10.213 -10.213
-10.213 -10.213 -10.213 -10.213 -10.212 -10.212 -10.212 -10.212
-10.212 -10.211 -10.211 -10.211 -10.210 -10.210 -10.210 -10.210
-10.210 -10.210 -10.210 -10.210 -10.209 -10.209 -10.209 -10.209
-10.209 -10.208 -10.208 -10.208 -10.207 -10.207 -10.207 -10.207
-10.206 -10.205 -10.204 -10.204 -10.203 -10.203 -10.202 -10.202
-10.201 -10.201 -10.201 -10.200 -10.200 -10.199 -10.199 -10.199
-10.198 -10.197 -10.197 -10.193  -1.090  -1.081  -1.021  -0.999
 -0.986  -0.984  -0.971  -0.966  -0.966  -0.965  -0.962  -0.960
 -0.942  -0.933  -0.930  -0.928  -0.926  -0.925  -0.925  -0.922
 -0.922  -0.922  -0.900  -0.895  -0.894  -0.891  -0.889  -0.889
 -0.881  -0.869  -0.853  -0.849  -0.843  -0.843  -0.840  -0.839
 -0.839  -0.836  -0.826  -0.822  -0.805  -0.803  -0.799  -0.798
 -0.797  -0.797  -0.796  -0.794  -0.793  -0.793  -0.784  -0.784
 -0.773  -0.771  -0.771  -0.769  -0.768  -0.765  -0.765  -0.761
 -0.753  -0.746  -0.742  -0.741  -0.737  -0.735  -0.719  -0.718
 -0.716  -0.715  -0.714  -0.713  -0.711  -0.711  -0.710  -0.709
 -0.708  -0.707  -0.707  -0.704  -0.702  -0.697  -0.677  -0.672
 -0.661  -0.660  -0.660  -0.657  -0.649  -0.647  -0.636  -0.633
 -0.630  -0.628  -0.626  -0.624  -0.623  -0.619  -0.619  -0.617
 -0.616  -0.615  -0.615  -0.613  -0.613  -0.612  -0.608  -0.607
 -0.606  -0.604  -0.603  -0.601  -0.566  -0.565  -0.564  -0.562
 -0.561  -0.560  -0.559  -0.559  -0.558  -0.556  -0.555  -0.554
 -0.539  -0.537  -0.534  -0.533  -0.532  -0.530  -0.529  -0.527
 -0.525  -0.522  -0.521  -0.519  -0.517  -0.514  -0.513  -0.512
 -0.508  -0.507  -0.499  -0.498  -0.494  -0.490  -0.487  -0.486
 -0.484  -0.484  -0.482  -0.481  -0.479  -0.479  -0.477  -0.473
 -0.473  -0.473  -0.471  -0.470  -0.470  -0.469  -0.468  -0.467
 -0.466  -0.465  -0.464  -0.463  -0.462  -0.461  -0.460  -0.459
 -0.457  -0.456  -0.455  -0.453  -0.451  -0.449  -0.446  -0.446
 -0.443  -0.442  -0.440  -0.439  -0.438  -0.437  -0.433  -0.433
 -0.432  -0.431  -0.429  -0.428  -0.427  -0.426  -0.426  -0.425
 -0.423  -0.423  -0.422  -0.421  -0.420  -0.420  -0.420  -0.418
 -0.418  -0.418  -0.418  -0.417  -0.416  -0.414  -0.414  -0.413
 -0.412  -0.411  -0.411  -0.408  -0.401  -0.400  -0.398  -0.397
 -0.395  -0.393  -0.393  -0.391  -0.389  -0.388  -0.387  -0.386
 -0.381  -0.379  -0.377  -0.373  -0.370  -0.369  -0.368  -0.366
 -0.365  -0.364  -0.363  -0.363  -0.362  -0.359  -0.358  -0.357
 -0.357  -0.356  -0.354  -0.354  -0.354  -0.352  -0.352  -0.351
 -0.349  -0.349  -0.348  -0.348  -0.346  -0.345  -0.344  -0.344
 -0.343  -0.341  -0.340  -0.339  -0.339  -0.338  -0.335  -0.335
 -0.333  -0.332  -0.332  -0.331  -0.330  -0.328  -0.326  -0.323
 -0.308  -0.308  -0.303  -0.298  -0.291  -0.288  -0.275  -0.273
 -0.271  -0.270  -0.269  -0.268  -0.267  -0.266  -0.263  -0.263
 -0.262  -0.262  -0.261  -0.258  -0.257  -0.256  -0.256  -0.254
 -0.248  -0.247  -0.245  -0.244  -0.227  -0.223  -0.212  -0.212
 -0.210  -0.209  -0.207  -0.206  -0.201  -0.196
 -- Virtual --
 -0.125  -0.123  -0.122  -0.119  -0.110  -0.109  -0.080  -0.078
 -0.076  -0.074  -0.057  -0.056  -0.053  -0.049  -0.027  -0.025
 -0.024  -0.021  -0.020  -0.019  -0.019  -0.017  -0.014  -0.013
 -0.012  -0.011  -0.009  -0.008  -0.007  -0.005  -0.001   0.005
  0.010   0.011   0.034   0.035   0.038   0.041   0.045   0.047
  0.051   0.052   0.053   0.057   0.058   0.060   0.066   0.067
  0.068   0.069   0.080   0.083   0.085   0.089   0.091   0.091
  0.094   0.096   0.100   0.100   0.100   0.101   0.103   0.106
  0.110   0.110   0.111   0.114   0.114   0.115   0.116   0.119
  0.120   0.122   0.124   0.127   0.127   0.128   0.135   0.138
  0.139   0.143   0.144   0.146   0.148   0.149   0.152   0.154
  0.155   0.156   0.157   0.161   0.163   0.165   0.166   0.167
  0.168   0.170   0.170   0.176   0.176   0.177   0.178   0.179
  0.182   0.184   0.185   0.186   0.187   0.189   0.189   0.191
  0.193   0.194   0.195   0.197   0.199   0.202   0.203   0.203
  0.205   0.205   0.209   0.211   0.212   0.215   0.215   0.217
  0.219   0.220   0.222   0.224   0.224   0.226   0.228   0.229
  0.230   0.231   0.233   0.234   0.235   0.237   0.240   0.241
  0.242   0.244   0.246   0.247   0.248   0.248   0.249   0.253
  0.258   0.262   0.267   0.271   0.272   0.277   0.278   0.280
  0.282   0.283   0.284   0.288   0.291   0.291   0.301   0.303
  0.304   0.307   0.309   0.312   0.315   0.317   0.317   0.317
  0.320   0.323   0.325   0.328   0.330   0.330   0.332   0.333
  0.335   0.336   0.339   0.346   0.347   0.350   0.351   0.353
  0.359   0.360   0.365   0.365   0.371   0.376   0.381   0.385
  0.392   0.393   0.397   0.399   0.400   0.403   0.404   0.406
  0.408   0.409   0.411   0.415   0.417   0.421   0.424   0.425
  0.428   0.429   0.431   0.433   0.434   0.438   0.440   0.443
  0.447   0.449   0.452   0.453   0.456   0.458   0.459   0.460
  0.462   0.467   0.470   0.471   0.471   0.473   0.474   0.475
  0.476   0.478   0.479   0.480   0.481   0.482   0.483   0.484
  0.487   0.488   0.489   0.490   0.491   0.492   0.493   0.494
  0.494   0.496   0.498   0.499   0.500   0.501   0.502   0.503
  0.503   0.506   0.506   0.507   0.508   0.509   0.509   0.511
  0.512   0.513   0.515   0.516   0.516   0.517   0.518   0.518
  0.519   0.520   0.520   0.521   0.522   0.522   0.523   0.524
  0.525   0.526   0.527   0.527   0.529   0.529   0.530   0.531
  0.531   0.533   0.533   0.535   0.536   0.537   0.537   0.538
  0.539   0.540   0.541   0.542   0.543   0.543   0.544   0.545
  0.545   0.546   0.547   0.547   0.548   0.549   0.550   0.551
  0.551   0.552   0.553   0.553   0.555   0.555   0.556   0.556
  0.558   0.558   0.559   0.559   0.560   0.562   0.563   0.564
  0.564   0.565   0.566   0.567   0.567   0.568   0.569   0.569
  0.570   0.571   0.572   0.574   0.574   0.576   0.577   0.577
  0.579   0.579   0.580   0.581   0.581   0.582   0.583   0.584
  0.584   0.585   0.586   0.586   0.587   0.588   0.589   0.590
  0.591   0.592   0.594   0.595   0.596   0.597   0.598   0.599
  0.600   0.601   0.603   0.603   0.604   0.605   0.606   0.607
  0.609   0.609   0.610   0.610   0.612   0.613   0.615   0.616
  0.617   0.617   0.618   0.621   0.622   0.623   0.624   0.625
  0.626   0.627   0.629   0.630   0.630   0.630   0.632   0.634
  0.634   0.635   0.637   0.638   0.639   0.639   0.641   0.642
  0.643   0.644   0.644   0.646   0.648   0.648   0.649   0.650
  0.652   0.653   0.654   0.654   0.656   0.657   0.657   0.658
  0.658   0.659   0.660   0.661   0.662   0.663   0.663   0.664
  0.665   0.665   0.666   0.668   0.668   0.668   0.669   0.670
  0.671   0.672   0.673   0.674   0.675   0.676   0.678   0.679
  0.680   0.681   0.683   0.684   0.685   0.685   0.687   0.688
  0.689   0.691   0.692   0.693   0.695   0.696   0.697   0.700
  0.701   0.701   0.703   0.704   0.705   0.707   0.708   0.708
  0.708   0.711   0.711   0.711   0.714   0.715   0.716   0.717
  0.718   0.719   0.720   0.721   0.722   0.723   0.725   0.727
  0.728   0.729   0.730   0.730   0.731   0.733   0.734   0.736
  0.736   0.739   0.739   0.742   0.743   0.744   0.745   0.745
  0.748   0.748   0.752   0.753   0.753   0.756   0.756   0.757
  0.758   0.760   0.761   0.763   0.765   0.766   0.767   0.769
  0.770   0.771   0.773   0.774   0.776   0.778   0.778   0.779
  0.780   0.781   0.782   0.783   0.783   0.784   0.786   0.788
  0.788   0.789   0.792   0.792   0.793   0.795   0.796   0.797
  0.798   0.799   0.800   0.802   0.803   0.804   0.805   0.806
  0.806   0.807   0.808   0.810   0.810   0.811   0.811   0.812
  0.813   0.813   0.814   0.814   0.815   0.816   0.817   0.818
  0.819   0.820   0.821   0.822   0.823   0.824   0.825   0.826
  0.827   0.827   0.829   0.830   0.831   0.832   0.833   0.834
  0.835   0.835   0.839   0.840   0.841   0.843   0.847   0.848
  0.848   0.850   0.851   0.853   0.857   0.861   0.863   0.864
  0.866   0.869   0.874   0.875   0.878   0.879   0.882   0.884
  0.891   0.893   0.895   0.897   0.901   0.904   0.908   0.910
  0.912   0.913   0.916   0.918   0.920   0.922   0.923   0.924
  0.926   0.928   0.929   0.933   0.933   0.934   0.935   0.938
  0.939   0.940   0.941   0.942   0.943   0.946   0.948   0.950
  0.952   0.956   0.956   0.958   0.961   0.963   0.966   0.969
  0.969   0.971   0.973   0.979   0.980   0.982   0.987   0.987
  0.990   0.993   0.995   0.996   0.999   1.000   1.002   1.003
  1.006   1.007   1.010   1.011   1.013   1.014   1.016   1.017
  1.019   1.020   1.022   1.023   1.025   1.027   1.030   1.031
  1.032   1.035   1.036   1.038   1.038   1.040   1.042   1.043
  1.045   1.046   1.049   1.050   1.051   1.054   1.055   1.058
  1.059   1.060   1.063   1.063   1.066   1.067   1.069   1.070
  1.072   1.073   1.074   1.076   1.077   1.080   1.080   1.084
  1.086   1.087   1.088   1.090   1.090   1.091   1.095   1.095
  1.098   1.099   1.101   1.103   1.104   1.107   1.109   1.110
  1.112   1.114   1.115   1.116   1.119   1.124   1.126   1.127
  1.128   1.132   1.133   1.137   1.139   1.141   1.144   1.146
  1.150   1.151   1.151   1.154   1.155   1.156   1.160   1.161
  1.162   1.164   1.166   1.168   1.169   1.170   1.171   1.173
  1.174   1.175   1.177   1.178   1.180   1.181   1.182   1.184
  1.185   1.187   1.189   1.191   1.193   1.194   1.198   1.200
  1.203   1.203   1.204   1.206   1.209   1.214   1.215   1.220
  1.223   1.225   1.226   1.228   1.233   1.236   1.238   1.239
  1.242   1.246   1.250   1.251   1.254   1.257   1.259   1.262
  1.262   1.264   1.266   1.267   1.268   1.271   1.273   1.275
  1.276   1.278   1.278   1.281   1.282   1.283   1.287   1.288
  1.291   1.295   1.296   1.299   1.300   1.303   1.305   1.307
  1.312   1.316   1.317   1.320   1.323   1.326   1.329   1.331
  1.332   1.335   1.336   1.338   1.341   1.344   1.344   1.345
  1.348   1.349   1.353   1.354   1.358   1.359   1.360   1.362
  1.365   1.369   1.370   1.372   1.374   1.376   1.377   1.379
  1.382   1.384   1.387   1.390   1.394   1.396   1.398   1.402
  1.404   1.406   1.407   1.408   1.413   1.415   1.418   1.420
  1.421   1.428   1.433   1.435   1.437   1.441   1.442   1.444
  1.446   1.450   1.453   1.453   1.455   1.457   1.459   1.460
  1.462   1.464   1.464   1.466   1.469   1.470   1.471   1.472
  1.473   1.474   1.474   1.477   1.477   1.479   1.483   1.486
  1.492   1.492   1.495   1.499   1.503   1.505   1.508   1.511
  1.514   1.518   1.520   1.523   1.526   1.532   1.534   1.537
  1.538   1.542   1.542   1.545   1.548   1.550   1.552   1.554
  1.556   1.558   1.559   1.561   1.566   1.568   1.569   1.575
  1.576   1.576   1.580   1.581   1.585   1.587   1.590   1.593
  1.594   1.597   1.598   1.603   1.607   1.611   1.614   1.616
  1.617   1.624   1.626   1.632   1.634   1.639   1.642   1.645
  1.647   1.648   1.650   1.653   1.656   1.658   1.662   1.663
  1.668   1.671   1.676   1.679   1.681   1.688   1.689   1.691
  1.697   1.699   1.700   1.704   1.706   1.707   1.712   1.715
  1.717   1.719   1.721   1.722   1.724   1.725   1.728   1.729
  1.731   1.732   1.737   1.738   1.740   1.741   1.743   1.744
  1.745   1.746   1.748   1.748   1.751   1.751   1.753   1.754
  1.756   1.758   1.761   1.762   1.764   1.765   1.767   1.768
  1.770   1.772   1.773   1.775   1.776   1.778   1.778   1.779
  1.780   1.781   1.783   1.784   1.785   1.786   1.789   1.790
  1.790   1.791   1.793   1.794   1.795   1.796   1.798   1.800
  1.801   1.802   1.803   1.805   1.807   1.809   1.810   1.813
  1.813   1.815   1.816   1.819   1.820   1.821   1.821   1.823
  1.825   1.829   1.831   1.834   1.836   1.838   1.839   1.841
  1.843   1.844   1.845   1.846   1.852   1.852   1.854   1.855
  1.857   1.859   1.862   1.864   1.865   1.867   1.869   1.870
  1.871   1.871   1.872   1.876   1.879   1.880   1.880   1.884
  1.884   1.886   1.889   1.891   1.892   1.896   1.896   1.898
  1.900   1.904   1.904   1.907   1.910   1.912   1.915   1.916
  1.920   1.921   1.923   1.925   1.926   1.929   1.932   1.934
  1.935   1.937   1.941   1.941   1.943   1.943   1.946   1.948
  1.948   1.950   1.951   1.953   1.955   1.957   1.957   1.959
  1.961   1.966   1.971   1.973   1.974   1.977   1.977   1.982
  1.983   1.984   1.985   1.986   1.988   1.990   1.991   1.994
  1.994   1.996   1.997   1.999   2.000   2.001   2.002   2.003
  2.004   2.005   2.006   2.008   2.010   2.010   2.012   2.013
  2.015   2.016   2.018   2.019   2.021   2.023   2.024   2.024
  2.026   2.028   2.028   2.031   2.031   2.033   2.035   2.037
  2.038   2.039   2.041   2.042   2.043   2.046   2.047   2.047
  2.048   2.049   2.052   2.052   2.055   2.055   2.057   2.058
  2.059   2.059   2.060   2.062   2.063   2.064   2.065   2.067
  2.067   2.068   2.070   2.071   2.072   2.074   2.076   2.078
  2.079   2.082   2.083   2.083   2.084   2.087   2.088   2.089
  2.091   2.092   2.093   2.095   2.098   2.100   2.101   2.104
  2.104   2.106   2.109   2.110   2.112   2.116   2.119   2.121
  2.123   2.123   2.127   2.131   2.133   2.135   2.137   2.139
  2.141   2.144   2.149   2.151   2.155   2.163   2.164   2.166
  2.169   2.172   2.175   2.184   2.192   2.195   2.201   2.203
  2.206   2.210   2.211   2.213   2.218   2.219   2.222   2.228
  2.230   2.231   2.235   2.237   2.240   2.240   2.242   2.243
  2.246   2.250   2.252   2.257   2.258   2.260   2.262   2.263
  2.265   2.267   2.269   2.274   2.275   2.279   2.280   2.283
  2.284   2.285   2.287   2.290   2.293   2.294   2.296   2.297
  2.300   2.302   2.305   2.310   2.312   2.316   2.317   2.321
  2.324   2.325   2.327   2.328   2.330   2.332   2.335   2.337
  2.339   2.341   2.342   2.345   2.346   2.347   2.350   2.351
  2.352   2.353   2.361   2.364   2.365   2.366   2.367   2.368
  2.370   2.371   2.373   2.375   2.378   2.379   2.381   2.382
  2.383   2.385   2.387   2.388   2.390   2.391   2.393   2.398
  2.399   2.399   2.401   2.403   2.405   2.406   2.407   2.410
  2.411   2.412   2.414   2.415   2.417   2.418   2.420   2.424
  2.425   2.426   2.427   2.433   2.437   2.439   2.442   2.444
  2.446   2.450   2.451   2.452   2.455   2.456   2.457   2.460
  2.463   2.464   2.468   2.468   2.471   2.473   2.475   2.478
  2.479   2.481   2.483   2.483   2.486   2.490   2.490   2.492
  2.495   2.496   2.499   2.500   2.501   2.504   2.504   2.506
  2.507   2.510   2.512   2.513   2.516   2.516   2.518   2.520
  2.524   2.528   2.529   2.531   2.533   2.535   2.537   2.540
  2.542   2.545   2.547   2.549   2.553   2.560   2.563   2.568
  2.569   2.570   2.576   2.578   2.581   2.584   2.588   2.590
  2.591   2.594   2.596   2.598   2.599   2.600   2.601   2.605
  2.606   2.607   2.608   2.611   2.613   2.614   2.615   2.618
  2.620   2.622   2.624   2.627   2.627   2.629   2.631   2.633
  2.634   2.635   2.639   2.640   2.641   2.643   2.646   2.646
  2.648   2.650   2.651   2.653   2.655   2.657   2.658   2.660
  2.661   2.663   2.663   2.665   2.670   2.671   2.674   2.674
  2.676   2.678   2.680   2.681   2.682   2.684   2.686   2.688
  2.690   2.695   2.698   2.698   2.701   2.701   2.705   2.707
  2.709   2.711   2.713   2.715   2.717   2.719   2.721   2.724
  2.727   2.730   2.732   2.734   2.738   2.741   2.742   2.744
  2.746   2.747   2.750   2.754   2.757   2.759   2.760   2.764
  2.765   2.768   2.770   2.771   2.772   2.774   2.775   2.778
  2.781   2.782   2.783   2.785   2.787   2.788   2.790   2.798
  2.802   2.803   2.806   2.811   2.811   2.817   2.818   2.819
  2.821   2.821   2.827   2.830   2.836   2.837   2.839   2.841
  2.844   2.846   2.851   2.853   2.854   2.857   2.859   2.862
  2.864   2.865   2.866   2.869   2.871   2.872   2.874   2.875
  2.876   2.879   2.881   2.884   2.885   2.888   2.889   2.891
  2.893   2.894   2.895   2.898   2.899   2.900   2.902   2.904
  2.908   2.909   2.910   2.912   2.915   2.918   2.919   2.920
  2.922   2.923   2.925   2.926   2.927   2.930   2.933   2.934
  2.935   2.939   2.943   2.945   2.949   2.952   2.953   2.954
  2.961   2.962   2.965   2.967   2.970   2.975   2.978   2.983
  2.984   2.988   2.990   2.993   2.996   2.997   2.998   3.000
  3.005   3.008   3.008   3.012   3.014   3.019   3.027   3.030
  3.032   3.035   3.036   3.037   3.038   3.040   3.041   3.044
  3.047   3.050   3.054   3.057   3.062   3.064   3.069   3.072
  3.075   3.076   3.077   3.080   3.088   3.090   3.096   3.105
  3.116   3.120   3.126   3.133   3.138   3.141   3.143   3.143
  3.145   3.148   3.155   3.158   3.167   3.177   3.183   3.191
  3.196   3.203   3.205   3.213   3.229   3.234   3.239   3.242
  3.243   3.248   3.253   3.255   3.262   3.265   3.266   3.270
  3.287   3.298   3.305   3.310   3.321   3.325   3.331   3.336
  3.340   3.341   3.344   3.346   3.352   3.359   3.361   3.381
  3.386   3.391   3.402   3.414   3.416   3.418   3.440   3.443
  3.451   3.451   3.464   3.469   3.476   3.482   3.488   3.493
  3.493   3.500   3.519   3.522   3.525   3.530   3.534   3.539
  3.559   3.560   3.567   3.578   3.583   3.587   3.591   3.599
  3.614   3.619   3.687   3.687   3.835   3.843   3.983   4.002
  4.070   4.071   4.077   4.078   4.084   4.087   4.093   4.097
  4.098   4.102   4.104   4.111   4.111   4.113   4.116   4.120
  4.123   4.125   4.129   4.138   4.140   4.142   4.148   4.151
  4.155   4.158   4.163   4.166   4.170   4.176   4.178   4.180
  4.185   4.190   4.192   4.201   4.202   4.212   4.228   4.233
  4.238   4.240   4.243   4.248   4.250   4.252   4.260   4.261
  4.265   4.268   4.278   4.281   4.286   4.288   4.294   4.297
  4.300   4.310   4.318   4.321   4.375   4.378   4.384   4.387
  4.392   4.396   4.400   4.403   4.407   4.411   4.412   4.416
  4.419   4.422   4.426   4.428   4.431   4.437   4.468   4.473
  4.474   4.479   4.497   4.520   4.533   4.535   4.542   4.549
  4.550   4.566   4.582   4.618   4.620   4.629   4.632   4.636
  4.640   4.647   4.660   4.677   4.688   4.698   4.698   4.699
  4.702   4.708   4.711   4.717   4.737   4.764   4.790   4.830
  4.840   4.849   4.851   4.864   4.867   4.876   4.892   4.894
  4.906   4.916   4.954   4.961   4.963   4.970   4.979   4.987
  4.993   4.996   5.005   5.015   5.166   5.173   5.174   5.195
  5.199   5.206   5.217   5.223   5.322   5.328   5.331   5.342
  5.355   5.377
 --------------------------------------------------------------
 
          Ground-State Mulliken Net Atomic Charges

     Atom                 Charge (a.u.)
  ----------------------------------------
      1 O                    -0.470187
      2 C                    -0.092404
      3 H                     0.146693
      4 H                     0.130138
      5 H                     0.123454
      6 O                    -0.483394
      7 C                     0.595563
      8 C                    -0.245510
      9 H                     0.128985
     10 H                     0.121088
     11 C                    -0.208263
     12 H                     0.114945
     13 H                     0.116162
     14 C                    -0.178123
     15 H                     0.109280
     16 H                     0.121604
     17 C                     0.043113
     18 C                     0.058158
     19 C                    -0.095915
     20 H                     0.096866
     21 C                    -0.091034
     22 H                     0.090439
     23 C                    -0.083400
     24 H                     0.093439
     25 C                    -0.095181
     26 H                     0.095344
     27 C                    -0.094460
     28 H                     0.097275
     29 C                     0.029461
     30 C                    -0.025879
     31 C                    -0.027696
     32 C                    -0.028272
     33 C                     0.005780
     34 C                    -0.012554
     35 C                    -0.020895
     36 C                     0.045098
     37 C                    -0.020605
     38 C                    -0.014044
     39 C                    -0.068762
     40 C                     0.006474
     41 C                    -0.000872
     42 C                    -0.012021
     43 C                     0.004351
     44 C                     0.011710
     45 C                    -0.096517
     46 C                     0.018173
     47 C                     0.007963
     48 C                    -0.020787
     49 C                    -0.018528
     50 C                     0.008366
     51 C                    -0.033346
     52 C                     0.049170
     53 C                     0.025210
     54 C                     0.017560
     55 C                    -0.017387
     56 C                     0.000788
     57 C                     0.019374
     58 C                    -0.000053
     59 C                    -0.014951
     60 C                     0.009477
     61 C                     0.026508
     62 C                    -0.008263
     63 C                     0.015939
     64 C                     0.009082
     65 C                     0.016907
     66 C                     0.000581
     67 C                    -0.005189
     68 C                     0.005505
     69 C                    -0.002561
     70 C                     0.028013
     71 C                    -0.016920
     72 C                     0.008112
     73 C                    -0.053551
     74 C                    -0.028784
     75 C                     0.014096
     76 C                    -0.014838
     77 C                     0.015844
     78 C                     0.022495
     79 C                     0.020568
     80 C                    -0.001255
     81 C                    -0.007457
     82 C                     0.019560
     83 C                    -0.006457
     84 C                     0.020530
     85 C                     0.011443
     86 C                    -0.033385
     87 C                    -0.011331
     88 C                    -0.012407
     89 O                    -0.478198
     90 C                    -0.095914
     91 H                     0.126871
     92 H                     0.124465
     93 H                     0.131155
     94 O                    -0.443433
     95 C                     0.586809
     96 C                    -0.257799
     97 H                     0.123292
     98 H                     0.116851
     99 C                    -0.185273
    100 H                     0.136739
    101 H                     0.114635
    102 C                    -0.180399
    103 H                     0.111852
    104 H                     0.114888
    105 C                     0.006593
    106 C                     0.052505
    107 C                    -0.091473
    108 H                     0.092266
    109 C                    -0.095137
    110 H                     0.087862
    111 C                    -0.071734
    112 H                     0.100482
    113 C                    -0.104584
    114 H                     0.084577
    115 C                    -0.095572
    116 H                     0.099563
    117 C                     0.004416
    118 C                    -0.014032
    119 C                    -0.002048
    120 C                    -0.012105
    121 C                    -0.015297
    122 C                    -0.000466
    123 C                     0.002256
    124 C                    -0.037988
    125 C                     0.012908
    126 C                     0.009824
    127 C                    -0.091957
    128 C                     0.024625
    129 C                    -0.032123
    130 C                    -0.006967
    131 C                     0.023237
    132 C                     0.012180
    133 C                    -0.094577
    134 C                     0.042983
    135 C                     0.041432
    136 C                    -0.026801
    137 C                     0.011969
    138 C                     0.023076
    139 C                    -0.020795
    140 C                     0.009219
    141 C                     0.014168
    142 C                    -0.001962
    143 C                     0.002626
    144 C                    -0.009900
    145 C                    -0.012354
    146 C                    -0.004740
    147 C                     0.013872
    148 C                     0.036538
    149 C                     0.020412
    150 C                    -0.005132
    151 C                     0.002032
    152 C                    -0.002391
    153 C                    -0.014034
    154 C                    -0.022157
    155 C                     0.002494
    156 C                     0.001540
    157 C                     0.006048
    158 C                     0.039841
    159 C                     0.017182
    160 C                    -0.009157
    161 C                     0.005896
    162 C                    -0.034835
    163 C                    -0.016190
    164 C                    -0.007658
    165 C                    -0.031758
    166 C                    -0.010175
    167 C                    -0.021521
    168 C                     0.015204
    169 C                    -0.008417
    170 C                     0.006253
    171 C                     0.014461
    172 C                     0.012545
    173 C                     0.016542
    174 C                    -0.022498
    175 C                     0.008702
    176 C                     0.020422
  ----------------------------------------
  Sum of atomic charges =     0.000000

 -----------------------------------------------------------------
                    Cartesian Multipole Moments
 -----------------------------------------------------------------
    Charge (ESU x 10^10)
                 0.0000
    Dipole Moment (Debye)
         X      -0.7336      Y       0.8044      Z       0.6082
       Tot       1.2471
    Quadrupole Moments (Debye-Ang)
        XX    -794.2257     XY     -10.2678     YY    -823.1674
        XZ     -11.3475     YZ       9.1704     ZZ    -788.3961
    Octopole Moments (Debye-Ang^2)
       XXX    -105.2543    XXY     204.8155    XYY    -164.2648
       YYY     120.6099    XXZ      34.2752    XYZ     -65.6798
       YYZ     103.7819    XZZ      31.8587    YZZ     -43.1050
       ZZZ     173.2604
    Hexadecapole Moments (Debye-Ang^3)
      XXXX -135826.8508   XXXY   -3838.4513   XXYY  -33267.6078
      XYYY    -951.1153   YYYY  -61999.4487   XXXZ   -1230.9954
      XXYZ    1320.1670   XYYZ   -1216.1196   YYYZ    1058.4679
      XXZZ  -25912.8265   XYZZ   -1932.0041   YYZZ  -12290.0647
      XZZZ     293.5665   YZZZ    -543.2391   ZZZZ  -21350.2629
 -----------------------------------------------------------------
Archival summary:
1\1\mn251\SP\ProcedureUnspecified\6-31G**\428\afmv_a\MonOct1503:31:312018MonOct1503:31:312018\0\\#,ProcedureUnspecified,6-31G**,\\0,1\C\C,1,1.39794\C,2,1.37446,1,118.493\C,3,1.36876,2,109.944,1,139.394,0\C,4,1.36437,3,108.703,2,-5.84662,0\C,5,1.40416,4,107.776,3,1.12655,0\C,6,1.35973,5,118.741,4,-146.955,0\C,7,1.39994,6,119.365,5,143.549,0\C,8,1.39448,7,106.879,6,-147.376,0\C,1,1.40516,2,118.776,3,-131.104,0\C,10,1.38403,1,108.832,2,144.686,0\C,11,1.36953,10,107.365,1,-2.22467,0\C,12,1.37919,11,118.773,10,-140.455,0\C,11,1.38332,10,121.071,1,-149.085,0\C,12,1.40604,11,110.078,10,-2.01745,0\C,15,1.3728,12,120.333,11,-141.821,0\C,16,1.39897,15,115.264,12,136.541,0\C,14,1.40758,11,119.823,10,0.597531,0\C,18,1.40116,14,105.578,11,141.777,0\C,19,1.37487,18,111.758,14,-1.62361,0\C,7,1.40765,6,123.911,5,-5.48063,0\C,20,1.40876,19,122.231,18,-138.306,0\C,22,1.35807,20,119.896,19,-1.76091,0\C,23,1.37753,22,121.329,20,4.53104,0\C,24,1.37107,23,121.89,22,138.167,0\C,25,1.34232,24,106.692,23,-149.799,0\C,25,1.40258,24,120.134,23,-2.8153,0\C,27,1.39057,25,122.145,24,2.30738,0\C,23,1.4096,22,106.73,20,144.661,0\C,29,1.37086,23,110.202,22,0.920937,0\C,30,1.37015,29,106.172,23,-0.917588,0\C,31,1.40884,30,119.975,29,-142.716,0\C,32,1.38774,31,116.565,30,5.1112,0\C,33,1.3641,32,107.9,31,141.313,0\C,34,1.38426,33,119.398,32,-150.527,0\C,35,1.38954,34,118.012,33,3.75024,0\C,36,1.39124,35,125.856,34,-6.73673,0\C,37,1.39593,36,118.553,35,139.708,0\C,38,1.38822,37,105.459,36,-140.172,0\C,39,1.3935,38,117.801,37,140.371,0\C,40,1.38638,39,123.038,38,0.717872,0\C,37,1.39655,36,113.579,35,4.89764,0\C,42,1.39556,37,106.938,36,141.49,0\C,36,1.39716,35,102.164,34,137.48,0\C,44,1.38249,36,119.893,35,-155.19,0\C,4,1.40976,3,119.407,2,-149.709,0\C,38,1.41452,37,121.133,36,3.00991,0\C,47,1.36185,38,118.844,37,-133.943,0\C,41,1.41453,40,111.007,39,-144.18,0\C,49,1.39071,41,120.946,40,140.408,0\C,50,1.40572,49,119.987,41,-136.767,0\C,51,1.38216,50,104.783,49,144.588,0\C,52,1.38264,51,109.697,50,0.380173,0\C,53,1.3867,52,110.881,51,1.39796,0\C,14,1.41542,11,119.52,10,140.73,0\C,55,1.38311,14,119.485,11,-5.02382,0\C,24,1.42582,23,118.679,22,-8.04342,0\C,48,1.43171,47,109.061,38,142.582,0\C,57,1.48564,24,107.001,23,156.489,0\C,59,1.47831,57,118.39,24,-136.401,0\C,60,1.4775,59,61.1341,57,-120.506,0\C,61,1.48126,60,120.675,59,-103.05,0\H,62,1.0972,61,112.619,60,47.2564,0\H,62,1.09733,61,109.977,60,-176.919,0\C,61,1.48781,60,122.478,59,109.402,0\C,65,1.40971,61,123.281,60,48.0086,0\H,66,1.0857,65,121.759,61,8.29268,0\C,66,1.39144,65,120.199,61,-169.626,0\H,68,1.08631,66,116.152,65,166.788,0\C,68,1.41988,66,120.437,65,-5.47458,0\H,70,1.08592,68,123.968,66,-174.738,0\C,70,1.41644,68,118.73,66,-3.63769,0\H,72,1.08589,70,114.939,68,-172.37,0\C,72,1.40046,70,121.27,68,10.6067,0\H,74,1.08623,72,118.702,70,177.038,0\C,62,1.53991,61,109.935,60,-67.5668,0\H,76,1.09659,62,105.938,61,-55.0953,0\H,76,1.09693,62,117.745,61,62.7969,0\C,76,1.59649,62,111.228,61,-171.842,0\H,79,1.09685,76,104.839,62,-75.3705,0\H,79,1.09711,76,114.621,62,43.2663,0\C,79,1.50637,76,113.338,62,168.333,0\O,82,1.24217,79,119.264,76,-95.7787,0\O,82,1.37443,79,112.107,76,94.7099,0\C,84,1.47673,82,115.504,79,-179.102,0\H,85,1.09685,84,108.504,82,80.8774,0\H,85,1.09703,84,106.37,82,-171.507,0\H,85,1.09758,84,111.542,82,-52.2394,0\H,35,2.86029,34,111.095,33,-105.348,0\C,89,1.08633,35,109.618,34,-97.2481,0\C,90,1.41041,89,124.124,35,106.401,0\H,91,1.08516,90,116.193,89,-3.49738,0\C,91,1.39668,90,123.438,89,178.319,0\H,93,1.08625,91,116.897,90,-176.306,0\C,93,1.41092,91,120.047,90,5.3524,0\C,90,1.41384,89,121.254,35,-74.5048,0\H,96,1.08595,90,110.677,89,4.09494,0\C,96,1.4173,90,124.985,89,176.251,0\H,98,1.08602,96,121.625,90,-169.967,0\C,95,1.53773,93,123.286,91,167.901,0\C,100,1.5055,95,113.24,93,-64.1534,0\C,101,1.46939,100,126.786,95,-10.7676,0\C,102,1.40911,101,118.311,100,-75.3378,0\C,103,1.36814,102,116.339,101,-145.915,0\C,103,1.40158,102,123.192,101,-5.91299,0\C,105,1.37318,103,122.026,102,1.45719,0\C,106,1.36144,105,117.728,103,-131.526,0\C,107,1.38662,106,120.25,105,-10.608,0\C,108,1.37135,107,123.554,106,10.0877,0\C,109,1.4032,108,116.484,107,-3.70179,0\C,110,1.3909,109,121.252,108,143.974,0\C,109,1.41799,108,113.572,107,140.463,0\C,112,1.35116,109,104.537,108,0.408951,0\C,112,1.40961,109,120.441,108,-142.827,0\C,114,1.3795,112,119.35,109,137.28,0\C,115,1.38084,114,110.806,112,-143.991,0\C,116,1.41517,115,118.61,114,137.802,0\C,117,1.37885,116,124.225,115,8.27501,0\C,118,1.37858,117,109.081,116,-144.988,0\C,118,1.3955,117,119.248,116,-4.1233,0\C,117,1.40211,116,118.113,115,-135.067,0\C,121,1.38638,117,106.51,116,147.813,0\C,122,1.40042,121,120.702,117,-143.987,0\C,123,1.39472,122,119.341,121,-2.89722,0\C,124,1.36653,123,105.502,122,142.051,0\C,125,1.37971,124,110.848,123,2.62481,0\C,126,1.37958,125,107.71,124,-0.953434,0\C,127,1.38583,126,120.636,125,-148.485,0\C,126,1.39285,125,117.451,124,-144.04,0\C,129,1.36919,126,116.977,125,141.79,0\C,128,1.40025,127,117.654,126,5.56955,0\C,129,1.40774,126,124.947,125,-3.61686,0\C,132,1.36595,129,116.484,126,0.32339,0\C,133,1.36687,132,119.584,129,1.2881,0\C,121,1.40805,117,123.563,116,2.56231,0\C,135,1.37606,121,119.321,117,0.681299,0\C,135,1.38675,121,121.459,117,140.599,0\C,137,1.38742,135,108.888,121,-135.543,0\C,138,1.37576,137,123.784,135,140.62,0\C,136,1.39644,135,107.371,121,135.906,0\C,132,1.41135,129,109.518,126,144.947,0\C,141,1.39686,132,123.505,129,-139.595,0\C,142,1.37874,141,116.241,132,127.648,0\C,143,1.3931,142,126.665,141,10.4102,0\C,120,1.41256,118,119.379,117,-132.341,0\C,145,1.39737,120,107.574,118,135.274,0\C,146,1.34571,145,109.122,120,2.33749,0\C,146,1.39821,145,123.045,120,-153.225,0\C,148,1.39247,146,118.644,145,143.368,0\C,145,1.413,120,122.633,118,-6.33589,0\C,136,1.4149,135,120.637,121,-0.618609,0\C,151,1.40558,136,121.235,135,137.636,0\C,149,1.41545,148,121.819,146,6.6019,0\C,147,1.41675,146,109.754,145,-4.2527,0\C,144,1.41751,143,118.441,142,-7.82733,0\C,155,1.37999,144,109.361,143,-143.864,0\C,156,1.35346,155,118.875,144,144.186,0\C,128,1.42895,127,114.597,126,137.18,0\C,141,1.43074,132,104.77,129,1.54943,0\C,142,1.50148,141,120.153,132,-9.80683,0\C,100,1.57431,95,110.515,93,70.1797,0\H,161,1.09689,100,116.387,95,-71.0777,0\H,161,1.09726,100,110.172,95,170.978,0\C,161,1.53336,100,108.788,95,51.3519,0\H,164,1.09728,161,116.143,100,57.9008,0\H,164,1.09768,161,111.497,100,-66.1977,0\C,164,1.57701,161,107.253,100,-178.275,0\H,167,1.09652,164,107.932,161,-63.5734,0\H,167,1.09666,164,117.484,161,47.384,0\C,167,1.49235,164,118.825,161,168.359,0\O,170,1.18566,167,122.417,164,-76.7549,0\O,170,1.39268,167,107.524,164,106.59,0\C,172,1.47392,170,115.951,167,175.811,0\H,173,1.09625,172,111.959,170,67.0894,0\H,173,1.09681,172,111.318,170,-52.657,0\H,173,1.09715,172,109.867,170,-175.247,0\\\@

 Total job time:  856.26s(wall), 8150.00s(cpu) 
 Mon Oct 15 03:31:31 2018

        *************************************************************
        *                                                           *
        *  Thank you very much for using Q-Chem.  Have a nice day.  *
        *                                                           *
        *************************************************************


