
Running Job 1 of 1 ./6/25.qcin
qchem ./6/25.qcin_52045.0 /tmpu/cab_g/afmv_a/scratch_qchem/qchem52045/ 1
/tmpu/appuserlic/qchem4.4/serial-multicore/exe/qcprog.exe_s ./6/25.qcin_52045.0 /tmpu/cab_g/afmv_a/scratch_qchem/qchem52045/
Check license passed

                  Welcome to Q-Chem
     A Quantum Leap Into The Future Of Chemistry


 Q-Chem 4.4, Q-Chem, Inc., Pleasanton, CA (2016)

 Y. Shao,  Z. Gan,  E. Epifanovsky,  A. T. B. Gilbert,  M. Wormit,  
 J. Kussmann,  A. W. Lange,  A. Behn,  J. Deng,  X. Feng,  D. Ghosh,  
 M. Goldey,  P. R. Horn,  L. D. Jacobson,  I. Kaliman,  F. Rob,  
 R. Z. Khaliullin,  T. Kus,  A. Landau,  J. Liu,  E. I. Proynov,  Y. M. Rhee,  
 R. M. Richard,  M. A. Rohrdanz,  R. P. Steele,  E. J. Sundstrom,  
 H. L. Woodcock III,  P. M. Zimmerman,  D. Zuev,  B. Albrecht,  E. Alguire,  
 B. Austin,  S. A. Baeppler,  G. J. O. Beran,  Y. A. Bernard,  E. Berquist,  
 K. Brandhorst,  K. B. Bravaya,  S. T. Brown,  D. Casanova,  C.-M. Chang,  
 Y. Chen,  S. H. Chien,  K. D. Closser,  M. P. Coons,  D. L. Crittenden,  
 S. Dasgupta,  M. Diedenhofen,  R. A. DiStasio Jr.,  H. Do,  A. D. Dutoi,  
 R. G. Edgar,  P.-T. Fang,  S. Fatehi,  Q. Feng,  L. Fusti-Molnar,  
 A. Ghysels,  A. Golubeva-Zadorozhnaya,  J. Gomes,  A. Gunina,  
 M. W. D. Hanson-Heine,  P. H. P. Harbach,  A. W. Hauser,  J. E. Herr,  
 E. G. Hohenstein,  Z. C. Holden,  K. Hui,  T.-C. Jagau,  H. Ji,  B. Kaduk,  
 K. Khistyaev,  Jaehoon Kim,  Jihan Kim,  R. A. King,  P. Klunzinger,  
 K. Koh,  D. Kosenkov,  T. Kowalczyk,  C. M. Krauter,  A. Kunitsa,  
 K. U. Lao,  A. Laurent,  K. V. Lawler,  J. Lee,  D. Lefrancois,  S. Lehtola,  
 S. V. Levchenko,  C. Y. Lin,  Y.-S. Lin,  F. Liu,  E. Livshits,  
 R. C. Lochan,  A. Luenser,  P. Manohar,  S. F. Manzer,  S.-P. Mao,  Y. Mao,  
 N. Mardirossian,  A. V. Marenich,  L. A. Martinez-Martinez,  S. A. Maurer,  
 N. J. Mayhall,  J.-M. Mewes,  A. F. Morrison,  K. Nanda,  T. S. Nguyen-Beck,  
 C. M. Oana,  R. Olivares-Amaya,  D. P. O'Neill,  J. A. Parkhill,  
 T. M. Perrine,  R. Peverati,  P. A. Pieniazek,  F. Plasser,  A. Prociuk,  
 D. R. Rehn,  E. Rosta,  N. J. Russ,  N. Sergueev,  S. M. Sharada,  
 S. Sharma,  D. W. Small,  A. Sodt,  T. Stauch,  T. Stein,  D. Stuck,  
 Y.-C. Su,  A. J. W. Thom,  T. Tsuchimochi,  L. Vogt,  O. Vydrov,  T. Wang,  
 M. A. Watson,  J. Wenzel,  A. White,  C. F. Williams,  V. Vanovschi,  
 K. Yao,  S. Yeganeh,  S. R. Yost,  Z.-Q. You,  I. Y. Zhang,  X. Zhang,  
 Y. Zhao,  B. R. Brooks,  G. K. L. Chan,  D. M. Chipman,  C. J. Cramer,  
 W. A. Goddard III,  M. S. Gordon,  W. J. Hehre,  A. Klamt,  
 H. F. Schaefer III,  M. W. Schmidt,  C. D. Sherrill,  D. G. Truhlar,  
 A. Warshel,  X. Xu,  A. Aspuru-Guzik,  R. Baer,  A. T. Bell,  N. A. Besley,  
 J.-D. Chai,  A. Dreuw,  B. D. Dunietz,  T. R. Furlani,  S. R. Gwaltney,  
 C.-P. Hsu,  Y. Jung,  J. Kong,  D. S. Lambrecht,  W. Liang,  C. Ochsenfeld,  
 V. A. Rassolov,  L. V. Slipchenko,  J. E. Subotnik,  T. Van Voorhis,  
 J. M. Herbert,  A. I. Krylov,  P. M. W. Gill,  M. Head-Gordon

 Contributors to earlier versions of Q-Chem not listed above: 
 R. D. Adamson,  J. Baker,  E. F. C. Byrd,  A. K. Chakraborty,  C.-L. Cheng,  
 H. Dachsel,  R. J. Doerksen,  G. Hawkins,  A. Heyden,  S. Hirata,  
 G. Kedziora,  F. J. Keil,  C. Kelley,  P. P. Korambath,  W. Kurlancheek,  
 A. M. Lee,  M. S. Lee,  D. Liotard,  I. Lotan,  P. E. Maslen,  N. Nair,  
 D. Neuhauser,  R. Olson,  B. Peters,  J. Ritchie,  N. E. Schultz,  
 N. Shenvi,  A. C. Simmonett,  K. S. Thanthiriwatte,  Q. Wu,  W. Zhang

 Please cite Q-Chem as follows:
 Y. Shao et al., Mol. Phys. 113, 184-215 (2015)
 DOI: 10.1080/00268976.2014.952696

 Q-Chem 4.4.2 for Intel X86 Linux

 Parts of Q-Chem use Armadillo 5.200.1 (Boston Tea Smuggler).
 http://arma.sourceforge.net/

 Q-Chem begins on Mon Oct 15 04:57:08 2018  

Host: 
0

     Scratch files written to /tmpu/cab_g/afmv_a/scratch_qchem/qchem52045//
 Dec716 11556_ 22328  22283 4050   
Processing $rem in /tmpu/appuserlic/qchem4.4/serial-multicore/config/preferences.
 MEM_TOTAL  2000 
FILE_GEOM_ORG=        593

Checking the input file for inconsistencies... 	...done.

--------------------------------------------------------------
User input:
--------------------------------------------------------------
$comment
SP
$end

$rem
MEM_STATIC 5000
MEM_TOTAL 20000
JOBTYPE SP
EXCHANGE B3LYP
BASIS 6-31g(d,p)
$end

$molecule
0 1
O         -23.879000     11.685000      6.441000
C         -24.715000     12.898000      6.596000
H         -24.013000     13.737000      6.675000
H         -25.225000     12.941000      7.567000
H         -25.413000     13.032000      5.761000
O         -23.179000     12.096000      4.398000
C         -23.135000     11.431000      5.326000
C         -22.138000     10.266000      5.488000
H         -22.596000      9.373000      5.929000
H         -21.358000     10.617000      6.175000
C         -21.490000      9.904000      4.193000
H         -22.218000      9.353000      3.584000
H         -21.162000     10.788000      3.634000
C         -20.351000      8.954000      4.425000
H         -19.846000      8.807000      3.463000
H         -19.552000      9.515000      4.926000
C         -20.611000      7.564000      5.160000
C         -21.440000      6.705000      4.356000
C         -22.871000      6.773000      4.514000
H         -23.264000      7.360000      5.339000
C         -23.664000      6.038000      3.606000
H         -24.728000      6.005000      3.818000
C         -23.067000      5.356000      2.512000
H         -23.702000      4.776000      1.848000
C         -21.622000      5.331000      2.373000
H         -21.146000      4.830000      1.535000
C         -20.850000      6.108000      3.218000
H         -19.782000      6.216000      3.055000
C         -21.681000      4.878000      9.819000
C         -20.493000      3.246000      8.474000
C         -16.631000      3.207000     10.959000
C         -18.973000      9.104000     10.233000
C         -14.961000      5.374000      8.792000
C         -21.362000      4.322000      8.577000
C         -16.257000      8.386000     10.191000
C         -18.943000      3.323000     11.666000
C         -17.870000      5.035000      6.018000
C         -18.220000      9.196000      9.029000
C         -19.426000      6.889000      5.906000
C         -17.123000      6.219000      6.083000
C         -16.567000      8.325000      7.751000
C         -15.394000      7.299000     10.105000
C         -20.181000      4.589000      6.737000
C         -15.547000      5.108000     11.097000
C         -20.527000      7.523000      6.687000
C         -20.106000      8.539000      7.686000
C         -15.215000      4.533000      9.891000
C         -18.904000      6.629000     12.756000
C         -17.459000      4.873000     12.562000
C         -18.724000      4.360000     12.527000
C         -20.124000      3.312000     10.896000
C         -20.801000      8.275000      8.930000
C         -19.234000      5.372000      6.025000
C         -19.924000      2.749000      9.667000
C         -16.881000      8.848000      9.014000
C         -19.727000      3.329000      7.340000
C         -15.949000      6.181000      6.861000
C         -20.520000      7.814000     11.268000
C         -17.944000      2.732000     10.849000
C         -18.000000      7.332000      6.087000
C         -20.858000      5.434000     11.882000
C         -15.595000      7.270000      7.703000
C         -17.443000      3.887000      6.701000
C         -16.608000      7.095000     11.982000
C         -16.994000      8.258000     11.374000
C         -16.261000      3.880000      7.426000
C         -20.249000      8.638000     10.143000
C         -18.775000      8.926000      7.789000
C         -19.344000      7.780000     12.026000
C         -21.361000      6.582000      7.539000
C         -17.787000      2.540000      8.453000
C         -17.765000      8.346000      7.003000
C         -15.531000      5.046000      7.538000
C         -21.267000      6.628000     11.194000
C         -15.871000      3.336000      9.783000
C         -21.069000      4.376000     10.971000
C         -16.369000      4.303000     11.819000
C         -18.338000      2.989000      7.299000
C         -16.455000      3.052000      8.573000
C         -21.187000      5.181000      7.491000
C         -21.549000      7.118000      8.826000
C         -17.548000      6.281000     12.698000
C         -18.545000      2.441000      9.634000
C         -14.982000      6.783000      8.879000
C         -18.374000      8.635000     11.360000
C         -15.613000      6.490000     11.207000
C         -21.722000      6.290000      9.919000
C         -19.662000      5.457000     12.627000
O          -9.332000     13.301000      9.338000
C         -10.638000     13.873000      9.582000
H         -10.998000     14.180000      8.592000
H         -10.553000     14.777000     10.197000
H         -11.240000     13.167000     10.167000
O          -8.651000     14.833000      7.850000
C          -8.465000     13.816000      8.510000
C          -7.209000     12.950000      8.433000
H          -7.595000     11.932000      8.297000
H          -6.755000     13.026000      9.428000
C          -6.321000     13.247000      7.160000
H          -6.459000     14.292000      6.857000
H          -5.300000     13.242000      7.562000
C          -6.416000     12.214000      5.916000
H          -5.463000     12.362000      5.393000
H          -6.635000     11.191000      6.245000
C          -7.483000     12.653000      4.841000
C          -6.962000     13.888000      4.152000
C          -7.399000     15.182000      4.449000
H          -8.209000     15.158000      5.171000
C          -6.878000     16.332000      3.812000
H          -7.182000     17.341000      4.074000
C          -5.729000     16.170000      2.933000
H          -5.245000     17.049000      2.518000
C          -5.393000     14.813000      2.475000
H          -4.583000     14.572000      1.792000
C          -5.914000     13.736000      3.200000
H          -5.713000     12.697000      2.956000
C         -12.656000     13.239000      3.427000
C         -11.593000     12.708000      1.281000
C         -13.322000      8.512000      1.142000
C         -11.730000      9.909000      6.991000
C         -10.514000      6.858000      2.375000
C         -11.550000     13.369000      2.545000
C         -11.455000      7.302000      5.766000
C         -14.306000     10.604000      1.785000
C          -8.434000     10.319000      2.082000
C         -10.415000      9.401000      6.751000
C          -8.032000     11.559000      4.000000
C          -8.179000      9.375000      3.061000
C          -9.245000      8.135000      5.291000
C         -11.432000      6.633000      4.572000
C          -9.450000     12.494000      2.143000
C         -12.933000      6.872000      2.660000
C          -8.912000     12.375000      4.970000
C          -9.601000     11.598000      6.099000
C         -11.818000      7.005000      1.893000
C         -14.651000      9.700000      5.140000
C         -14.639000      8.617000      3.166000
C         -14.852000      9.969000      2.948000
C         -13.795000     11.918000      1.862000
C         -10.832000     12.095000      6.298000
C          -8.427000     11.611000      2.558000
C         -12.718000     11.967000      0.967000
C         -10.330000      8.095000      6.158000
C         -10.304000     12.228000      0.990000
C          -8.705000      8.056000      3.005000
C         -13.204000     11.334000      6.224000
C         -13.539000      9.881000      0.933000
C          -8.065000     10.057000      4.267000
C         -14.317000     11.952000      4.204000
C          -9.191000      7.379000      4.081000
C          -9.293000     10.004000      1.030000
C         -13.495000      7.461000      4.918000
C         -12.672000      7.862000      5.972000
C          -9.755000      8.668000      0.959000
C         -11.922000     11.280000      6.731000
C          -9.401000     10.231000      6.262000
C         -13.794000     10.041000      6.212000
C         -10.062000     13.122000      4.452000
C         -11.305000     10.201000      0.107000
C          -8.689000      9.476000      5.351000
C          -9.473000      7.706000      1.925000
C         -13.522000     12.306000      5.286000
C         -12.072000      7.973000      0.878000
C         -13.761000     12.545000      3.065000
C         -13.845000      7.868000      2.261000
C         -10.193000     10.924000      0.474000
C         -11.017000      8.826000      0.417000
C         -10.273000     13.197000      3.068000
C         -11.136000     13.047000      5.318000
C         -14.470000      8.425000      4.552000
C         -12.590000     10.675000      0.373000
C         -10.306000      6.648000      3.745000
C         -12.819000      9.120000      6.585000
C         -12.727000      6.715000      4.020000
C         -12.448000     13.138000      4.832000
C         -14.863000     10.643000      4.118000
$end

--------------------------------------------------------------
 ----------------------------------------------------------------
             Standard Nuclear Orientation (Angstroms)
    I     Atom           X                Y                Z
 ----------------------------------------------------------------
    1      O      -6.1841941610    -4.9361999274    -5.1467741698
    2      C      -6.3960159971    -5.5294005531    -6.4874958141
    3      H      -5.4725403876    -5.3394456830    -7.0479206048
    4      H      -7.1360993736    -4.9794983959    -7.0830411217
    5      H      -6.6255148247    -6.6004717322    -6.4372781147
    6      O      -4.7151170182    -6.4052332360    -4.4280784853
    7      C      -5.2933292340    -5.4373361555    -4.2431707376
    8      C      -5.0369511028    -4.5138644420    -3.0353014366
    9      H      -5.9624453479    -4.1373619337    -2.5843022532
   10      H      -4.4746219074    -3.6522229100    -3.4159978330
   11      C      -4.2107416144    -5.1837929146    -1.9881401678
   12      H      -4.8451385088    -5.9031122483    -1.4546738835
   13      H      -3.3559541627    -5.7196791354    -2.4167254811
   14      C      -3.7663479148    -4.1886231782    -0.9557659935
   15      H      -3.0793302731    -4.7064415836    -0.2760977958
   16      H      -3.0313025791    -3.5273518910    -1.4317404038
   17      C      -4.8487034567    -3.3414223649    -0.1491172083
   18      C      -5.6347810903    -4.1925218617     0.7048439152
   19      C      -6.8446712943    -4.7756865542     0.1819350935
   20      H      -7.1976479154    -4.4318199248    -0.7859524238
   21      C      -7.5102632160    -5.7281662877     0.9839997736
   22      H      -8.4794358538    -6.0612573933     0.6263914497
   23      C      -6.9369180967    -6.1722349980     2.2056573995
   24      H      -7.4880010383    -6.8845639306     2.8134534864
   25      C      -5.7030835203    -5.5775781638     2.6873279172
   26      H      -5.2389877022    -5.9141834016     3.6098966059
   27      C      -5.0145403954    -4.6987663583     1.8704214502
   28      H      -4.0260129026    -4.3423559450     2.1436283554
   29      C      -8.5332083861     0.7193787632    -0.1393897384
   30      C      -7.8018149827     0.6007794809     2.1703268892
   31      C      -5.4823723093     4.5644498798     2.2062803879
   32      C      -4.5729262897     1.2861799936    -3.1985788601
   33      C      -2.3936217281     3.0084901396     1.7379993464
   34      C      -8.0832738272    -0.0162655955     0.9605408368
   35      C      -2.6253861435     2.7610051651    -1.8108029084
   36      C      -7.5910604425     3.9972866365     1.1620537783
   37      C      -3.9901320315    -0.6336038577     2.4151877735
   38      C      -3.4913611384     0.6253449979    -2.5515835495
   39      C      -4.4233172212    -1.9667348197     0.4388000511
   40      C      -2.8725886435    -0.5230170876     1.5767622597
   41      C      -2.0629518792     0.5914835669    -0.7957833355
   42      C      -2.3596352040     3.3921579076    -0.6005315942
   43      C      -6.3496733093    -1.0442832742     1.8490558321
   44      C      -3.7952730895     4.7138410109     0.8137002243
   45      C      -5.3266546110    -2.0167233226    -0.7467802751
   46      C      -4.8769197221    -1.2426199737    -1.9325292093
   47      C      -3.3554232327     4.0194809859     1.9180920294
   48      C      -6.4806441175     4.0662598510    -2.1366543447
   49      C      -5.9901202016     5.0647258647    -0.1437547218
   50      C      -7.2515103667     4.5524575126    -0.0384219792
   51      C      -8.3069462179     2.7827416782     1.1750960593
   52      C      -6.0000760629    -0.4754951026    -2.4328253878
   53      C      -4.9737060887    -1.3798972244     1.7445594973
   54      C      -7.9631497757     2.0017735555     2.2424773397
   55      C      -2.5305612332     1.3556450977    -1.8749926048
   56      C      -6.7377190724     0.0069782573     2.7985792274
   57      C      -2.1868545976     0.7075159703     1.6004521700
   58      C      -6.7810630790     1.7304561029    -2.9634519608
   59      C      -6.7407717703     3.9563925039     2.2978829220
   60      C      -3.1100504386    -1.2361118336     0.3755038449
   61      C      -8.3220822279     2.6959441970    -1.2756330360
   62      C      -1.7060166652     1.2991141788     0.4008658070
   63      C      -4.3789478055     0.4421071255     3.2266002301
   64      C      -4.1056461032     4.4185796374    -1.5682326702
   65      C      -3.7022752707     3.4214791417    -2.4134022229
   66      C      -3.6545587542     1.6242969140     3.2486412399
   67      C      -5.8036556379     0.7104871085    -3.1130512412
   68      C      -3.6399444479    -0.6087686616    -1.9405095150
   69      C      -6.0849764594     2.9442497432    -2.9340509979
   70      C      -6.7271728006    -1.4682844722    -0.5353455851
   71      C      -5.8645523435     2.0851235942     3.5359948651
   72      C      -2.7864502518    -0.6213147788    -0.8244063603
   73      C      -2.5753176106     1.7704623803     2.4007767399
   74      C      -7.8963667533     1.6128852173    -2.1194402304
   75      C      -4.3884228426     3.9207586808     2.8113863327
   76      C      -8.6469197424     2.1084394014    -0.0334073301
   77      C      -5.0808806052     5.1244115235     0.9674473204
   78      C      -5.7229741967     0.7378846206     3.4933243068
   79      C      -4.5775898516     2.7011642508     3.4135634405
   80      C      -7.1834744859    -1.0595851598     0.7374995131
   81      C      -7.0930335589    -0.6260987981    -1.6011214508
   82      C      -5.4908565912     4.7689921053    -1.4368743569
   83      C      -6.9453663584     2.7261648075     2.9035130645
   84      C      -1.8206149896     2.7047752315     0.4839213854
   85      C      -4.6742009819     2.6394906324    -3.1138159459
   86      C      -3.2793986061     4.4143904499    -0.4395287568
   87      C      -7.9799504802     0.4159784885    -1.4071748002
   88      C      -7.5798210977     3.8938368998    -1.2840880470
   89      O       5.5698876094     4.1471388485    -3.7489929217
   90      C       4.6556707434     3.5656550164    -4.7073457143
   91      H       4.8360174958     2.4850985640    -4.6455249899
   92      H       4.9109698669     3.8849862373    -5.7249487454
   93      H       3.6433564987     3.9434771308    -4.5188375714
   94      O       7.3245148803     2.8403696197    -4.2374254378
   95      C       6.8017903015     3.7454512190    -3.5954976277
   96      C       7.4872108753     4.5181808259    -2.4701049888
   97      H       6.7663517765     4.4811677042    -1.6437829036
   98      H       7.5516587314     5.5492133508    -2.8371682075
   99      C       8.7947858597     3.8123410935    -1.9322203057
  100      H       9.2458101325     3.2210182281    -2.7383173061
  101      H       9.4987203939     4.6462687683    -1.8177178833
  102      C       8.6924833569     2.9972257104    -0.5362363838
  103      H       9.7282156462     2.9870670488    -0.1745771153
  104      H       7.9464906258     3.4305684808     0.1408455081
  105      C       8.3749497771     1.4670374269    -0.7472606544
  106      C       9.5892316908     0.8256212058    -1.3681404055
  107      C       9.6942732780     0.5241762917    -2.7289163712
  108      H       8.7625775794     0.7377118814    -3.2430230500
  109      C      10.8530888569    -0.0518048584    -3.2990936845
  110      H      10.9548854930    -0.2435936705    -4.3630464543
  111      C      12.0380380872    -0.1827479149    -2.4637283526
  112      H      12.9698827772    -0.5212683117    -2.9066633529
  113      C      11.8774317939    -0.0483800832    -1.0076171259
  114      H      12.6788916134    -0.1605603080    -0.2825324723
  115      C      10.7202552203     0.5820068393    -0.5379899275
  116      H      10.5137070763     0.7464110724     0.5154649184
  117      C       4.8393932088    -2.3845558017    -2.0768434286
  118      C       6.2299120765    -3.5178935888    -0.4037478727
  119      C       2.9982326805    -3.3862079256     2.7827996583
  120      C       2.9038721606     1.9031111935    -0.4899779616
  121      C       4.1676396430    -0.5603925898     4.4525673200
  122      C       6.1183779464    -2.6148044641    -1.5030459081
  123      C       2.4081567736     1.6929939671     2.3530514098
  124      C       2.8817793668    -3.8729934026     0.4359618869
  125      C       7.5160659317    -0.6903027013     2.1805781580
  126      C       3.8523426787     2.4756896954     0.4141495380
  127      C       7.7300773602     0.7825612876     0.4021522308
  128      C       6.9720268024     0.4953976917     2.6418134599
  129      C       4.7699002978     2.1573636699     2.4537604217
  130      C       2.5465530527     0.8825022174     3.4474350690
  131      C       7.6114647697    -1.6994773109     0.0036381797
  132      C       2.0717378432    -1.5050313260     3.6476851524
  133      C       7.0243829285     0.9505497653    -0.9598063737
  134      C       5.7201297745     1.7579808515    -0.9681580907
  135      C       3.3196231021    -1.6357941167     4.1719813219
  136      C       1.0346481676    -1.0090580268    -0.3244633206
  137      C       1.2520471893    -2.3676809490     1.4578358745
  138      C       1.7467009495    -3.0044283588     0.3305970384
  139      C       3.8569786304    -3.9011591816    -0.5847433032
  140      C       4.8505935110     1.1950041165    -1.8219349247
  141      C       7.9258523237    -0.6256569677     0.8676482124
  142      C       5.0807803828    -4.1353347229     0.0562138612
  143      C       3.5531457849     2.3619586812     1.8148838008
  144      C       7.1868663900    -3.0077774997     0.4910269689
  145      C       5.9749220995     0.5350623645     3.6536345534
  146      C       2.5767582658     0.1752758333    -1.7935006764
  147      C       3.4939406211    -4.0218167300     1.6359753102
  148      C       6.9486493234     1.3792682746     1.5690682496
  149      C       2.6276270572    -2.2117085125    -1.7650208747
  150      C       4.9011990953     1.3712364611     3.6383770843
  151      C       7.0307261995    -1.9041025152     2.6652897795
  152      C       1.0828238527    -0.0492774584     2.0154600465
  153      C       1.5755342012     1.1263090607     1.4460051768
  154      C       6.0843355774    -1.8413448782     3.7159025862
  155      C       3.4388474688     1.2366429491    -1.6096772510
  156      C       5.2271740347     2.3464351090     0.1920032021
  157      C       1.5228481651     0.2136880525    -0.8406675320
  158      C       6.5806376742    -0.2356954814    -1.6978750453
  159      C       5.7713219659    -3.7051332197     2.3350302181
  160      C       5.8001514368     2.1299359830     1.4296279535
  161      C       5.5592357808    -0.6486519082     4.2056756796
  162      C       3.0667411745    -1.0142105429    -2.3138764157
  163      C       3.8875429124    -2.8572564333     3.7058677112
  164      C       3.7441672945    -3.0444810516    -1.6311037497
  165      C       1.8934935508    -2.5407831205     2.7104508208
  166      C       6.8833835609    -3.0451620164     1.8641597267
  167      C       5.2967490584    -2.9491644803     3.4632858720
  168      C       6.9188083134    -1.5118806130    -1.2260762231
  169      C       5.3579243575    -0.0174826310    -2.3031950408
  170      C       0.8268715013    -1.0798988510     1.0740860831
  171      C       4.8237058589    -4.2325852414     1.4572631201
  172      C       3.7723810539     0.7377276673     4.1019700498
  173      C       1.7953118094     1.2389754396     0.0607448800
  174      C       1.7016329731    -0.2299908366     3.2552833999
  175      C       4.4800057194    -1.0855697681    -2.5361536908
  176      C       1.6287659055    -2.2093984229    -0.7544447702
 ----------------------------------------------------------------
 Molecular Point Group                 C1    NOp =  1
 Largest Abelian Subgroup              C1    NOp =  1
 Nuclear Repulsion Energy = 34485.2145786807 hartrees
 There are      462 alpha and      462 beta electrons
 Requested basis set is 6-31G(d,p)
 There are 676 shells and 2360 basis functions

 Total QAlloc Memory Limit  20000 MB
 Mega-Array Size      4888 MB
 MEM_STATIC part      5000 MB
 A cutoff of  1.0D-08 yielded  37589 shell pairs
 There are    530199 function pairs
 
 -------------------------------------------------------
 OpenMP Integral Computing Module                       
 Release: version 1.0, May 2013, Q-Chem Inc. Pittsburgh 
 -------------------------------------------------------
 Integral Job Info:
 Integral job number is                      11
 Integral operator is                         1
 short-range coefficients                     0
 long-range coefficients              100000000
 Omega coefficients                           0
 if combine SR and LR in K                    0
 Integral screening is                        0
 Integral computing path is                   2
 max size of driver memory is            800000
 size of driver memory is                593474
 size of scratch memory is              2260544
 max col of scratch BK array               1296
 max len of scratch array in speh3          155
 max len of scratch index in speh4           18
 max int batch size is                      520
 min int batch size is                       52
 fixed nKL is                                52
 max L of basis functions is                  2
 order of int derivative is                   0
 number of shells is                        676
 number of basis is                        2360
 number of cartesian basis is              2360
 number of contracted shell pairs         37589
 number of primitive shell pairs         114026
 maxK2 (contraction) of shell pair           36
 max number of K2 of shell pair               1
 max number of CS2 of shell pair           7242
 max number of PS2 of shell pair          34710
 mem total for path MDJ                 1512568
 -------------------------------------------------------
 Smallest overlap matrix eigenvalue = 2.32E-04

 Scale SEOQF with 1.000000e-02/1.000000e-02/1.000000e-02

 Standard Electronic Orientation quadrupole field applied
 Nucleus-field energy     =     0.0000001097 hartrees
 Guess from superposition of atomic densities
 Warning:  Energy on first SCF cycle will be non-variational
 A restricted hybrid HF-DFT SCF calculation will be
 performed using Pulay DIIS extrapolation
 Exchange:     0.2000 Hartree-Fock + 0.0800 Slater + 0.7200 B88
 Correlation:  0.1900 VWN1RPA + 0.8100 LYP
 Using SG-1 standard quadrature grid
 SCF converges when DIIS error is below 1.0E-05
 using 16 threads for integral computing 
 -------------------------------------------------------
 OpenMP BLAS3 based DFT computing Module                
 Release: version 1.0, May 2013, Q-Chem Inc. Pittsburgh 
 -------------------------------------------------------
 ---------------------------------------
  Cycle       Energy         DIIS Error
 ---------------------------------------
    1   -5859.3363167544      1.85E-02
    2   -5803.0795207554      1.29E-03
    3   -5802.4643363868      1.71E-03
    4   -5803.9484993577      6.16E-04
    5   -5804.1456646689      3.11E-04
    6   -5804.2126584612      1.19E-04
    7   -5804.2214120788      4.62E-05
    8   -5804.2223080881      2.95E-05
    9   -5804.2230040032      7.35E-06 Convergence criterion met
 ---------------------------------------
 SCF time:  CPU 8274.27 s  wall 861.31 s
 SCF   energy in the final basis set = -5804.2230040032
 Total energy in the final basis set = -5804.2230040032
 
 --------------------------------------------------------------
 
                    Orbital Energies (a.u.)
 --------------------------------------------------------------
 
 Alpha MOs
 -- Occupied --
-19.197 -19.176 -19.134 -19.130 -10.314 -10.308 -10.252 -10.248
-10.243 -10.239 -10.237 -10.236 -10.236 -10.235 -10.231 -10.227
-10.226 -10.225 -10.224 -10.223 -10.222 -10.222 -10.221 -10.220
-10.220 -10.219 -10.219 -10.218 -10.218 -10.217 -10.217 -10.217
-10.217 -10.217 -10.217 -10.217 -10.217 -10.216 -10.216 -10.216
-10.216 -10.216 -10.216 -10.216 -10.216 -10.216 -10.215 -10.215
-10.214 -10.214 -10.214 -10.214 -10.214 -10.214 -10.214 -10.213
-10.213 -10.213 -10.213 -10.213 -10.213 -10.213 -10.213 -10.213
-10.213 -10.213 -10.213 -10.212 -10.212 -10.212 -10.212 -10.212
-10.212 -10.212 -10.212 -10.212 -10.212 -10.212 -10.211 -10.211
-10.211 -10.211 -10.211 -10.211 -10.211 -10.211 -10.211 -10.211
-10.211 -10.211 -10.211 -10.211 -10.211 -10.211 -10.210 -10.210
-10.210 -10.210 -10.210 -10.210 -10.210 -10.210 -10.209 -10.209
-10.209 -10.209 -10.209 -10.209 -10.209 -10.209 -10.209 -10.208
-10.208 -10.208 -10.208 -10.208 -10.207 -10.207 -10.207 -10.207
-10.207 -10.207 -10.207 -10.207 -10.207 -10.207 -10.206 -10.206
-10.206 -10.206 -10.205 -10.205 -10.204 -10.204 -10.203 -10.203
-10.203 -10.203 -10.202 -10.202 -10.202 -10.200 -10.200 -10.198
-10.196 -10.194 -10.192 -10.185  -1.110  -1.108  -1.017  -1.007
 -0.986  -0.984  -0.968  -0.967  -0.967  -0.964  -0.963  -0.960
 -0.937  -0.933  -0.928  -0.928  -0.927  -0.927  -0.926  -0.924
 -0.924  -0.920  -0.898  -0.897  -0.894  -0.890  -0.889  -0.886
 -0.877  -0.875  -0.849  -0.844  -0.843  -0.841  -0.841  -0.840
 -0.838  -0.835  -0.822  -0.817  -0.810  -0.800  -0.799  -0.797
 -0.797  -0.796  -0.794  -0.793  -0.792  -0.790  -0.786  -0.786
 -0.774  -0.773  -0.768  -0.767  -0.767  -0.766  -0.761  -0.761
 -0.753  -0.742  -0.742  -0.737  -0.732  -0.730  -0.720  -0.719
 -0.717  -0.715  -0.715  -0.714  -0.712  -0.711  -0.709  -0.709
 -0.708  -0.705  -0.704  -0.703  -0.701  -0.700  -0.673  -0.673
 -0.662  -0.660  -0.658  -0.657  -0.649  -0.646  -0.632  -0.631
 -0.631  -0.626  -0.625  -0.623  -0.621  -0.619  -0.619  -0.616
 -0.613  -0.613  -0.612  -0.611  -0.611  -0.609  -0.608  -0.605
 -0.605  -0.604  -0.603  -0.602  -0.565  -0.564  -0.563  -0.563
 -0.562  -0.560  -0.558  -0.557  -0.556  -0.554  -0.552  -0.548
 -0.536  -0.536  -0.536  -0.531  -0.529  -0.526  -0.526  -0.524
 -0.523  -0.522  -0.522  -0.519  -0.516  -0.515  -0.513  -0.512
 -0.509  -0.503  -0.502  -0.499  -0.494  -0.494  -0.489  -0.488
 -0.485  -0.484  -0.483  -0.482  -0.482  -0.480  -0.474  -0.474
 -0.473  -0.470  -0.470  -0.469  -0.469  -0.467  -0.466  -0.466
 -0.465  -0.465  -0.463  -0.463  -0.463  -0.461  -0.459  -0.458
 -0.456  -0.455  -0.453  -0.449  -0.447  -0.445  -0.445  -0.443
 -0.443  -0.441  -0.439  -0.439  -0.438  -0.437  -0.435  -0.432
 -0.431  -0.429  -0.429  -0.427  -0.427  -0.426  -0.425  -0.425
 -0.424  -0.423  -0.422  -0.421  -0.420  -0.420  -0.419  -0.419
 -0.418  -0.417  -0.416  -0.416  -0.416  -0.415  -0.414  -0.413
 -0.412  -0.410  -0.409  -0.407  -0.405  -0.401  -0.399  -0.398
 -0.395  -0.393  -0.392  -0.389  -0.388  -0.387  -0.384  -0.383
 -0.380  -0.376  -0.375  -0.372  -0.370  -0.367  -0.365  -0.363
 -0.362  -0.362  -0.361  -0.361  -0.360  -0.358  -0.357  -0.357
 -0.356  -0.355  -0.354  -0.354  -0.354  -0.353  -0.352  -0.350
 -0.349  -0.348  -0.346  -0.346  -0.344  -0.343  -0.342  -0.340
 -0.339  -0.339  -0.338  -0.338  -0.336  -0.336  -0.334  -0.334
 -0.333  -0.331  -0.330  -0.329  -0.328  -0.326  -0.324  -0.321
 -0.312  -0.306  -0.301  -0.297  -0.288  -0.283  -0.272  -0.271
 -0.270  -0.269  -0.268  -0.268  -0.267  -0.266  -0.265  -0.264
 -0.262  -0.261  -0.259  -0.259  -0.257  -0.256  -0.253  -0.251
 -0.246  -0.245  -0.242  -0.238  -0.220  -0.218  -0.213  -0.212
 -0.210  -0.208  -0.206  -0.203  -0.198  -0.195
 -- Virtual --
 -0.125  -0.121  -0.118  -0.115  -0.111  -0.105  -0.077  -0.075
 -0.074  -0.070  -0.061  -0.056  -0.055  -0.045  -0.023  -0.021
 -0.021  -0.019  -0.017  -0.017  -0.016  -0.015  -0.014  -0.011
 -0.010  -0.010  -0.009  -0.005  -0.004  -0.002   0.008   0.011
  0.017   0.029   0.038   0.040   0.044   0.046   0.048   0.052
  0.052   0.053   0.055   0.060   0.063   0.066   0.068   0.071
  0.073   0.074   0.077   0.083   0.084   0.089   0.093   0.095
  0.097   0.100   0.102   0.102   0.103   0.103   0.104   0.105
  0.108   0.109   0.112   0.112   0.112   0.115   0.119   0.120
  0.122   0.125   0.125   0.129   0.130   0.131   0.134   0.135
  0.139   0.142   0.146   0.149   0.153   0.155   0.156   0.157
  0.159   0.161   0.161   0.164   0.166   0.169   0.169   0.170
  0.172   0.172   0.174   0.175   0.177   0.177   0.179   0.183
  0.184   0.185   0.187   0.189   0.192   0.193   0.195   0.196
  0.198   0.200   0.203   0.205   0.205   0.206   0.208   0.213
  0.213   0.216   0.217   0.219   0.220   0.222   0.222   0.223
  0.224   0.225   0.228   0.229   0.230   0.231   0.232   0.235
  0.235   0.235   0.236   0.237   0.238   0.240   0.242   0.243
  0.246   0.247   0.248   0.250   0.255   0.255   0.258   0.263
  0.264   0.267   0.269   0.276   0.277   0.277   0.278   0.281
  0.283   0.287   0.288   0.288   0.293   0.295   0.302   0.303
  0.310   0.312   0.313   0.314   0.318   0.319   0.320   0.323
  0.323   0.326   0.326   0.330   0.333   0.333   0.335   0.335
  0.337   0.342   0.344   0.346   0.347   0.349   0.349   0.351
  0.351   0.354   0.369   0.370   0.377   0.381   0.383   0.390
  0.397   0.400   0.405   0.407   0.409   0.410   0.411   0.414
  0.415   0.416   0.419   0.420   0.421   0.425   0.427   0.427
  0.427   0.432   0.433   0.436   0.438   0.441   0.449   0.449
  0.452   0.452   0.452   0.453   0.458   0.459   0.463   0.463
  0.466   0.468   0.469   0.471   0.472   0.477   0.478   0.479
  0.480   0.481   0.481   0.482   0.484   0.484   0.486   0.487
  0.489   0.490   0.492   0.493   0.494   0.495   0.495   0.497
  0.498   0.500   0.500   0.501   0.502   0.504   0.505   0.505
  0.507   0.507   0.508   0.510   0.511   0.512   0.512   0.513
  0.513   0.514   0.514   0.516   0.516   0.518   0.518   0.520
  0.521   0.521   0.523   0.523   0.523   0.526   0.526   0.527
  0.528   0.528   0.529   0.530   0.531   0.533   0.533   0.534
  0.535   0.535   0.536   0.537   0.537   0.539   0.539   0.540
  0.541   0.542   0.542   0.544   0.545   0.545   0.546   0.547
  0.548   0.549   0.549   0.550   0.550   0.552   0.553   0.553
  0.554   0.556   0.557   0.557   0.557   0.558   0.559   0.560
  0.560   0.561   0.561   0.563   0.564   0.564   0.565   0.566
  0.567   0.567   0.568   0.569   0.570   0.572   0.572   0.573
  0.574   0.575   0.576   0.577   0.577   0.578   0.579   0.580
  0.581   0.582   0.583   0.583   0.584   0.585   0.585   0.586
  0.587   0.588   0.589   0.590   0.591   0.592   0.592   0.593
  0.594   0.595   0.595   0.596   0.597   0.599   0.599   0.600
  0.602   0.604   0.604   0.606   0.607   0.608   0.609   0.610
  0.611   0.611   0.613   0.614   0.615   0.615   0.616   0.619
  0.621   0.621   0.623   0.625   0.626   0.626   0.627   0.628
  0.628   0.629   0.632   0.632   0.633   0.634   0.636   0.636
  0.638   0.639   0.640   0.641   0.641   0.643   0.644   0.644
  0.647   0.648   0.649   0.650   0.650   0.652   0.652   0.654
  0.654   0.655   0.656   0.658   0.658   0.659   0.660   0.660
  0.662   0.662   0.663   0.664   0.665   0.666   0.666   0.667
  0.668   0.668   0.670   0.671   0.672   0.672   0.673   0.673
  0.674   0.675   0.676   0.677   0.678   0.679   0.680   0.682
  0.686   0.687   0.688   0.689   0.689   0.691   0.692   0.693
  0.693   0.694   0.696   0.697   0.698   0.699   0.700   0.702
  0.702   0.703   0.705   0.706   0.707   0.709   0.710   0.712
  0.713   0.714   0.716   0.717   0.718   0.720   0.720   0.721
  0.721   0.723   0.725   0.727   0.727   0.728   0.728   0.729
  0.731   0.732   0.733   0.736   0.737   0.737   0.739   0.740
  0.741   0.742   0.743   0.744   0.747   0.747   0.750   0.751
  0.752   0.753   0.754   0.754   0.755   0.756   0.760   0.761
  0.762   0.764   0.765   0.765   0.766   0.769   0.769   0.770
  0.772   0.773   0.775   0.776   0.777   0.778   0.779   0.781
  0.783   0.783   0.784   0.785   0.788   0.788   0.789   0.791
  0.792   0.793   0.794   0.795   0.797   0.797   0.797   0.798
  0.800   0.801   0.803   0.804   0.804   0.805   0.806   0.807
  0.807   0.808   0.809   0.809   0.811   0.811   0.812   0.813
  0.814   0.815   0.816   0.816   0.818   0.819   0.820   0.820
  0.821   0.823   0.823   0.824   0.825   0.826   0.827   0.828
  0.829   0.829   0.831   0.831   0.832   0.834   0.836   0.836
  0.837   0.838   0.839   0.841   0.843   0.848   0.849   0.852
  0.853   0.854   0.856   0.858   0.861   0.866   0.868   0.871
  0.873   0.876   0.877   0.878   0.881   0.885   0.887   0.890
  0.893   0.895   0.897   0.899   0.902   0.904   0.908   0.908
  0.910   0.911   0.915   0.918   0.919   0.922   0.925   0.927
  0.929   0.930   0.934   0.936   0.937   0.937   0.939   0.941
  0.943   0.944   0.945   0.946   0.947   0.948   0.949   0.953
  0.953   0.956   0.957   0.960   0.961   0.961   0.965   0.968
  0.971   0.976   0.978   0.979   0.983   0.984   0.986   0.989
  0.993   0.995   0.998   1.001   1.003   1.005   1.007   1.009
  1.012   1.013   1.014   1.014   1.015   1.017   1.018   1.019
  1.021   1.023   1.025   1.026   1.027   1.029   1.030   1.034
  1.034   1.036   1.039   1.040   1.042   1.045   1.046   1.048
  1.049   1.049   1.051   1.054   1.056   1.057   1.058   1.061
  1.062   1.065   1.065   1.066   1.069   1.070   1.071   1.073
  1.075   1.077   1.079   1.080   1.081   1.082   1.086   1.088
  1.089   1.089   1.091   1.093   1.095   1.098   1.099   1.102
  1.104   1.105   1.106   1.107   1.109   1.111   1.114   1.115
  1.117   1.118   1.120   1.122   1.124   1.126   1.130   1.133
  1.137   1.138   1.140   1.142   1.143   1.144   1.147   1.149
  1.149   1.151   1.155   1.158   1.160   1.162   1.164   1.165
  1.167   1.168   1.171   1.173   1.174   1.175   1.176   1.178
  1.181   1.181   1.183   1.184   1.186   1.186   1.187   1.190
  1.192   1.193   1.195   1.196   1.198   1.202   1.203   1.204
  1.206   1.209   1.210   1.212   1.216   1.217   1.218   1.221
  1.222   1.224   1.226   1.231   1.231   1.235   1.238   1.239
  1.243   1.248   1.250   1.252   1.253   1.254   1.259   1.260
  1.262   1.264   1.266   1.271   1.272   1.274   1.275   1.278
  1.279   1.281   1.284   1.285   1.286   1.287   1.290   1.292
  1.295   1.296   1.300   1.303   1.305   1.307   1.309   1.311
  1.314   1.315   1.319   1.322   1.322   1.325   1.328   1.333
  1.335   1.339   1.341   1.342   1.347   1.348   1.350   1.354
  1.356   1.360   1.361   1.363   1.364   1.366   1.369   1.370
  1.372   1.373   1.375   1.377   1.380   1.384   1.385   1.387
  1.390   1.392   1.395   1.397   1.399   1.402   1.406   1.407
  1.410   1.410   1.413   1.417   1.418   1.421   1.424   1.426
  1.427   1.429   1.435   1.436   1.439   1.443   1.446   1.448
  1.450   1.451   1.456   1.457   1.461   1.463   1.466   1.468
  1.469   1.471   1.472   1.473   1.475   1.476   1.478   1.480
  1.481   1.483   1.484   1.486   1.488   1.491   1.494   1.495
  1.498   1.500   1.502   1.507   1.510   1.512   1.518   1.519
  1.522   1.523   1.525   1.531   1.535   1.537   1.539   1.542
  1.543   1.545   1.546   1.549   1.550   1.554   1.557   1.558
  1.560   1.562   1.564   1.567   1.570   1.571   1.572   1.575
  1.578   1.580   1.582   1.586   1.588   1.591   1.592   1.595
  1.597   1.599   1.602   1.604   1.608   1.614   1.615   1.616
  1.622   1.624   1.626   1.631   1.632   1.637   1.642   1.644
  1.646   1.653   1.659   1.662   1.665   1.670   1.672   1.674
  1.677   1.684   1.685   1.688   1.692   1.695   1.696   1.700
  1.703   1.705   1.706   1.707   1.712   1.716   1.717   1.718
  1.721   1.725   1.725   1.726   1.729   1.730   1.734   1.737
  1.738   1.739   1.741   1.742   1.743   1.745   1.745   1.746
  1.748   1.750   1.753   1.753   1.754   1.756   1.757   1.759
  1.762   1.764   1.767   1.767   1.769   1.769   1.772   1.773
  1.775   1.775   1.777   1.778   1.778   1.780   1.781   1.781
  1.783   1.784   1.786   1.787   1.788   1.789   1.790   1.791
  1.792   1.793   1.794   1.795   1.796   1.797   1.799   1.800
  1.802   1.803   1.804   1.805   1.807   1.808   1.809   1.810
  1.812   1.813   1.816   1.817   1.820   1.820   1.822   1.823
  1.824   1.828   1.831   1.833   1.835   1.839   1.840   1.841
  1.842   1.844   1.849   1.851   1.854   1.855   1.857   1.859
  1.863   1.864   1.867   1.869   1.870   1.870   1.871   1.874
  1.876   1.877   1.878   1.880   1.881   1.883   1.884   1.886
  1.887   1.889   1.896   1.900   1.902   1.902   1.903   1.907
  1.909   1.913   1.916   1.917   1.918   1.922   1.924   1.926
  1.927   1.929   1.931   1.932   1.935   1.936   1.938   1.939
  1.941   1.942   1.944   1.945   1.948   1.951   1.953   1.954
  1.955   1.956   1.958   1.961   1.962   1.964   1.967   1.971
  1.971   1.973   1.977   1.979   1.979   1.981   1.983   1.985
  1.988   1.989   1.991   1.992   1.993   1.993   1.994   1.996
  1.998   1.998   1.999   2.000   2.001   2.004   2.005   2.007
  2.008   2.010   2.012   2.013   2.014   2.017   2.018   2.022
  2.022   2.022   2.025   2.025   2.026   2.026   2.028   2.029
  2.031   2.031   2.032   2.034   2.035   2.037   2.038   2.038
  2.040   2.041   2.042   2.043   2.044   2.045   2.046   2.047
  2.047   2.049   2.050   2.051   2.052   2.052   2.055   2.056
  2.057   2.058   2.060   2.060   2.063   2.065   2.066   2.066
  2.069   2.071   2.072   2.072   2.075   2.075   2.077   2.077
  2.082   2.082   2.084   2.085   2.086   2.089   2.089   2.090
  2.095   2.096   2.098   2.101   2.103   2.104   2.106   2.106
  2.108   2.112   2.114   2.116   2.120   2.120   2.122   2.125
  2.127   2.130   2.131   2.136   2.139   2.140   2.144   2.145
  2.148   2.152   2.156   2.157   2.158   2.162   2.167   2.172
  2.174   2.181   2.185   2.187   2.194   2.196   2.200   2.206
  2.206   2.216   2.221   2.224   2.224   2.225   2.227   2.232
  2.233   2.235   2.237   2.241   2.242   2.244   2.246   2.251
  2.253   2.255   2.257   2.258   2.259   2.263   2.265   2.266
  2.269   2.274   2.276   2.280   2.281   2.284   2.285   2.287
  2.289   2.290   2.294   2.296   2.297   2.298   2.302   2.304
  2.308   2.308   2.309   2.315   2.316   2.321   2.322   2.324
  2.326   2.326   2.329   2.333   2.335   2.335   2.340   2.341
  2.344   2.349   2.351   2.352   2.354   2.356   2.357   2.361
  2.362   2.363   2.365   2.366   2.367   2.369   2.370   2.373
  2.373   2.377   2.378   2.379   2.380   2.385   2.386   2.387
  2.389   2.391   2.392   2.393   2.395   2.398   2.398   2.400
  2.402   2.406   2.408   2.409   2.411   2.412   2.414   2.415
  2.416   2.417   2.418   2.420   2.422   2.424   2.425   2.429
  2.432   2.434   2.437   2.438   2.440   2.443   2.444   2.447
  2.448   2.451   2.454   2.456   2.456   2.457   2.460   2.462
  2.466   2.466   2.468   2.469   2.471   2.478   2.479   2.481
  2.482   2.484   2.487   2.488   2.492   2.493   2.494   2.496
  2.498   2.499   2.500   2.501   2.502   2.503   2.505   2.511
  2.512   2.514   2.516   2.518   2.518   2.520   2.522   2.523
  2.526   2.526   2.529   2.532   2.532   2.535   2.540   2.542
  2.543   2.544   2.546   2.551   2.554   2.561   2.565   2.568
  2.572   2.572   2.573   2.580   2.582   2.584   2.587   2.589
  2.592   2.593   2.595   2.596   2.597   2.602   2.604   2.606
  2.608   2.609   2.611   2.613   2.614   2.618   2.622   2.623
  2.625   2.627   2.628   2.629   2.630   2.635   2.637   2.639
  2.640   2.640   2.642   2.643   2.645   2.646   2.648   2.650
  2.652   2.653   2.654   2.658   2.659   2.660   2.663   2.664
  2.665   2.667   2.668   2.671   2.673   2.675   2.677   2.679
  2.680   2.682   2.683   2.685   2.686   2.688   2.689   2.691
  2.691   2.694   2.694   2.698   2.699   2.701   2.704   2.706
  2.707   2.712   2.713   2.717   2.718   2.720   2.723   2.726
  2.728   2.729   2.735   2.737   2.740   2.741   2.746   2.748
  2.749   2.752   2.753   2.754   2.757   2.759   2.760   2.762
  2.766   2.767   2.768   2.771   2.772   2.773   2.777   2.779
  2.784   2.785   2.787   2.790   2.791   2.793   2.794   2.797
  2.798   2.803   2.804   2.808   2.815   2.817   2.819   2.824
  2.826   2.829   2.834   2.837   2.840   2.841   2.843   2.845
  2.846   2.850   2.854   2.855   2.861   2.864   2.866   2.868
  2.871   2.871   2.875   2.876   2.879   2.881   2.884   2.885
  2.886   2.888   2.888   2.890   2.895   2.896   2.897   2.900
  2.902   2.904   2.906   2.907   2.908   2.909   2.912   2.915
  2.915   2.918   2.919   2.922   2.923   2.924   2.927   2.929
  2.931   2.931   2.935   2.936   2.939   2.940   2.944   2.945
  2.946   2.948   2.950   2.953   2.957   2.958   2.964   2.965
  2.969   2.971   2.974   2.975   2.976   2.980   2.984   2.987
  2.990   2.993   3.001   3.001   3.005   3.008   3.012   3.014
  3.017   3.019   3.021   3.022   3.026   3.028   3.029   3.031
  3.033   3.035   3.038   3.040   3.044   3.046   3.048   3.050
  3.051   3.056   3.057   3.059   3.063   3.066   3.070   3.071
  3.077   3.079   3.080   3.085   3.093   3.102   3.109   3.119
  3.125   3.125   3.131   3.137   3.141   3.145   3.151   3.160
  3.162   3.166   3.167   3.179   3.189   3.191   3.193   3.203
  3.205   3.225   3.229   3.231   3.232   3.234   3.243   3.244
  3.253   3.254   3.257   3.261   3.267   3.279   3.285   3.299
  3.304   3.311   3.315   3.316   3.328   3.331   3.333   3.344
  3.349   3.352   3.358   3.358   3.359   3.371   3.372   3.379
  3.380   3.392   3.398   3.406   3.412   3.416   3.425   3.432
  3.464   3.469   3.470   3.483   3.488   3.496   3.500   3.501
  3.504   3.517   3.518   3.529   3.532   3.534   3.545   3.555
  3.559   3.563   3.564   3.588   3.593   3.603   3.608   3.619
  3.624   3.648   3.699   3.706   3.804   3.834   4.024   4.025
  4.066   4.078   4.086   4.092   4.095   4.097   4.097   4.106
  4.107   4.108   4.110   4.113   4.114   4.117   4.120   4.121
  4.122   4.124   4.133   4.137   4.145   4.148   4.151   4.156
  4.160   4.165   4.170   4.172   4.176   4.178   4.181   4.184
  4.186   4.188   4.193   4.199   4.203   4.218   4.235   4.242
  4.244   4.247   4.249   4.250   4.254   4.261   4.264   4.268
  4.273   4.279   4.282   4.286   4.290   4.290   4.295   4.299
  4.303   4.305   4.319   4.321   4.374   4.385   4.390   4.397
  4.397   4.399   4.405   4.412   4.413   4.417   4.419   4.421
  4.423   4.426   4.433   4.434   4.434   4.439   4.454   4.468
  4.478   4.479   4.494   4.506   4.529   4.538   4.549   4.551
  4.559   4.562   4.618   4.625   4.631   4.639   4.644   4.647
  4.651   4.657   4.686   4.689   4.698   4.699   4.701   4.704
  4.705   4.707   4.713   4.721   4.733   4.764   4.796   4.797
  4.825   4.836   4.860   4.867   4.880   4.885   4.890   4.896
  4.904   4.909   4.960   4.970   4.977   4.981   4.990   4.990
  5.004   5.008   5.012   5.028   5.167   5.185   5.193   5.209
  5.211   5.216   5.228   5.230   5.324   5.353   5.356   5.360
  5.368   5.386
 --------------------------------------------------------------
 
          Ground-State Mulliken Net Atomic Charges

     Atom                 Charge (a.u.)
  ----------------------------------------
      1 O                    -0.500559
      2 C                    -0.085095
      3 H                     0.124369
      4 H                     0.128340
      5 H                     0.134419
      6 O                    -0.413823
      7 C                     0.585131
      8 C                    -0.266864
      9 H                     0.123580
     10 H                     0.132097
     11 C                    -0.171029
     12 H                     0.114919
     13 H                     0.125309
     14 C                    -0.194148
     15 H                     0.106398
     16 H                     0.098174
     17 C                     0.000252
     18 C                     0.089669
     19 C                    -0.101183
     20 H                     0.096414
     21 C                    -0.092104
     22 H                     0.094038
     23 C                    -0.093178
     24 H                     0.094530
     25 C                    -0.095094
     26 H                     0.094358
     27 C                    -0.084629
     28 H                     0.096903
     29 C                    -0.014524
     30 C                     0.023432
     31 C                    -0.032340
     32 C                     0.018394
     33 C                    -0.007398
     34 C                    -0.012439
     35 C                    -0.007950
     36 C                     0.001107
     37 C                     0.008230
     38 C                     0.000654
     39 C                    -0.101843
     40 C                     0.006081
     41 C                    -0.003227
     42 C                     0.007725
     43 C                    -0.030502
     44 C                     0.022265
     45 C                    -0.077224
     46 C                     0.013553
     47 C                     0.027962
     48 C                    -0.005588
     49 C                     0.003199
     50 C                     0.003670
     51 C                     0.008717
     52 C                     0.002327
     53 C                     0.028055
     54 C                    -0.010484
     55 C                    -0.005775
     56 C                    -0.017084
     57 C                     0.020056
     58 C                    -0.010947
     59 C                     0.015962
     60 C                     0.014991
     61 C                    -0.017190
     62 C                    -0.026310
     63 C                     0.015544
     64 C                     0.000901
     65 C                    -0.006645
     66 C                    -0.008469
     67 C                    -0.000236
     68 C                     0.007886
     69 C                    -0.007731
     70 C                     0.009187
     71 C                     0.004393
     72 C                     0.004127
     73 C                    -0.003506
     74 C                    -0.013536
     75 C                    -0.014836
     76 C                    -0.002801
     77 C                    -0.006643
     78 C                    -0.014684
     79 C                    -0.002534
     80 C                     0.034441
     81 C                     0.030526
     82 C                    -0.005781
     83 C                    -0.000098
     84 C                    -0.015960
     85 C                    -0.014466
     86 C                     0.005024
     87 C                     0.015876
     88 C                     0.000342
     89 O                    -0.439473
     90 C                    -0.089186
     91 H                     0.140385
     92 H                     0.127861
     93 H                     0.133904
     94 O                    -0.499916
     95 C                     0.591308
     96 C                    -0.270025
     97 H                     0.132079
     98 H                     0.134711
     99 C                    -0.194258
    100 H                     0.141944
    101 H                     0.095782
    102 C                    -0.179371
    103 H                     0.119938
    104 H                     0.104421
    105 C                     0.013448
    106 C                     0.097184
    107 C                    -0.111826
    108 H                     0.118717
    109 C                    -0.102163
    110 H                     0.100774
    111 C                    -0.104119
    112 H                     0.094753
    113 C                    -0.096066
    114 H                     0.093311
    115 C                    -0.104650
    116 H                     0.085310
    117 C                    -0.000478
    118 C                     0.004973
    119 C                     0.005747
    120 C                    -0.053928
    121 C                    -0.004864
    122 C                    -0.018740
    123 C                    -0.017750
    124 C                    -0.019443
    125 C                     0.003682
    126 C                    -0.036156
    127 C                    -0.107338
    128 C                     0.013534
    129 C                    -0.008257
    130 C                     0.028741
    131 C                     0.012830
    132 C                    -0.020463
    133 C                    -0.092038
    134 C                     0.038582
    135 C                     0.026519
    136 C                    -0.018299
    137 C                    -0.017654
    138 C                     0.003067
    139 C                    -0.014720
    140 C                     0.013843
    141 C                     0.028830
    142 C                     0.001219
    143 C                    -0.003385
    144 C                    -0.044392
    145 C                     0.029058
    146 C                     0.021152
    147 C                     0.041778
    148 C                     0.026949
    149 C                    -0.008000
    150 C                    -0.016424
    151 C                    -0.011823
    152 C                     0.002527
    153 C                     0.022133
    154 C                     0.011372
    155 C                     0.008426
    156 C                     0.012393
    157 C                    -0.025096
    158 C                     0.037242
    159 C                    -0.012974
    160 C                    -0.003797
    161 C                    -0.011444
    162 C                    -0.028248
    163 C                    -0.026760
    164 C                     0.032951
    165 C                     0.001677
    166 C                     0.031433
    167 C                    -0.017764
    168 C                     0.021469
    169 C                     0.001734
    170 C                    -0.000823
    171 C                    -0.011356
    172 C                    -0.013535
    173 C                     0.051997
    174 C                    -0.005362
    175 C                    -0.013447
    176 C                     0.017058
  ----------------------------------------
  Sum of atomic charges =     0.000000

 -----------------------------------------------------------------
                    Cartesian Multipole Moments
 -----------------------------------------------------------------
    Charge (ESU x 10^10)
                 0.0000
    Dipole Moment (Debye)
         X       0.0645      Y       0.4977      Z      -1.3114
       Tot       1.4041
    Quadrupole Moments (Debye-Ang)
        XX    -781.7934     XY      29.9498     YY    -804.7112
        XZ       9.6820     YZ      -7.2305     ZZ    -792.6664
    Octopole Moments (Debye-Ang^2)
       XXX     279.4486    XXY    -114.1145    XYY       8.0774
       YYY      39.8016    XXZ    -101.2729    XYZ     -23.3271
       YYZ     -25.6838    XZZ     -98.5408    YZZ     -77.4814
       ZZZ    -321.2992
    Hexadecapole Moments (Debye-Ang^3)
      XXXX -155465.0918   XXXY    2967.0479   XXYY  -32462.8256
      XYYY    1937.3505   YYYY  -40341.6470   XXXZ     533.1037
      XXYZ     638.1505   XYYZ    -305.3841   YYYZ    -625.3385
      XXZZ  -30729.7959   XYZZ    1113.8453   YYZZ  -10668.5560
      XZZZ     685.3769   YZZZ     640.7210   ZZZZ  -25660.7263
 -----------------------------------------------------------------
Archival summary:
1\1\mn251\SP\ProcedureUnspecified\6-31G**\428\afmv_a\MonOct1505:11:452018MonOct1505:11:452018\0\\#,ProcedureUnspecified,6-31G**,\\0,1\C\C,1,1.41277\C,2,1.39251,1,118.474\C,3,1.3845,2,122.077,1,-136.71,0\C,4,1.38794,3,120.745,2,5.96494,0\C,5,1.35831,4,121.279,3,144.728,0\C,5,1.37669,4,119.787,3,-2.25963,0\C,7,1.36924,5,108.584,4,147.737,0\C,8,1.37325,7,117.003,5,-136.343,0\C,3,1.39059,2,121.852,1,8.29502,0\C,4,1.39881,3,107.505,2,149.852,0\C,11,1.36793,4,108.795,3,0.203514,0\C,8,1.40614,7,105.854,5,-0.765998,0\C,13,1.4006,8,118.171,7,-137.262,0\C,14,1.3864,13,123.12,8,2.94042,0\C,15,1.40681,14,119.167,13,-4.24019,0\C,16,1.35533,15,121.268,14,143.494,0\C,17,1.4018,16,108.414,15,-135.988,0\C,18,1.38665,17,108.54,16,-6.46868,0\C,19,1.38022,18,119.275,17,146.391,0\C,20,1.3861,19,119.513,18,3.76928,0\C,18,1.4024,17,122.531,16,143.111,0\C,22,1.40146,18,120.444,17,-144.163,0\C,22,1.40503,18,119.308,17,-5.71254,0\C,7,1.40698,5,118.564,4,0.532341,0\C,10,1.41002,3,118.63,2,-9.45579,0\C,26,1.38356,10,120.11,3,-137.245,0\C,27,1.38511,26,109.211,10,148.387,0\C,28,1.38994,27,120.286,26,-147.794,0\C,26,1.4026,10,122.033,3,5.83423,0\C,28,1.4051,27,107.052,26,-2.36044,0\C,31,1.38653,28,123.34,27,-143.343,0\C,15,1.41336,14,110.901,13,145.394,0\C,33,1.36653,15,104.689,14,-3.8117,0\C,34,1.40989,33,111.826,15,2.50103,0\C,35,1.36552,34,118.988,33,-146.393,0\C,36,1.36551,35,116.746,34,137.382,0\C,33,1.4121,15,116.752,14,-144.674,0\C,38,1.37099,33,119.668,15,-3.95236,0\C,38,1.38692,33,117.567,15,136.461,0\C,40,1.39567,38,109.947,33,-143.013,0\C,41,1.38961,40,104.523,38,0.274298,0\C,40,1.39766,38,121.173,33,1.12648,0\C,43,1.39773,40,119.314,38,-2.73132,0\C,44,1.41202,43,109.152,40,-145.235,0\C,45,1.40924,44,118.693,43,140.995,0\C,46,1.40171,45,121.415,44,-133.617,0\C,47,1.40114,46,108.172,45,141.304,0\C,41,1.41258,40,124.649,38,147.918,0\C,49,1.40677,41,115.178,40,-8.65985,0\C,50,1.38165,49,108.396,41,-137.403,0\C,51,1.38125,50,120.168,49,147.456,0\C,52,1.36141,51,121.505,50,-136.696,0\C,53,1.35974,52,110.464,51,142.131,0\C,50,1.38209,49,120.795,41,8.06351,0\C,55,1.39531,50,122.459,49,-147.298,0\C,56,1.4036,55,115.24,50,5.2661,0\C,57,1.39953,56,117.08,55,134.943,0\C,29,1.48577,28,120.768,27,142.772,0\C,59,1.49135,29,115.698,28,-4.7404,0\C,59,1.52986,29,131.94,28,69.5966,0\C,61,1.43928,59,124.974,29,157.675,0\C,62,1.41406,61,117.465,59,133.959,0\H,63,1.08575,62,119.291,61,-7.22251,0\C,63,1.38338,62,119.727,61,176.592,0\H,65,1.0862,63,119.062,62,176.435,0\C,62,1.4413,61,118.847,59,-62.6101,0\H,67,1.08611,62,117.906,61,9.12309,0\C,67,1.41193,62,117.553,61,-172.683,0\H,69,1.08542,67,116.154,62,-172.693,0\C,69,1.42069,67,120.604,62,5.34654,0\H,71,1.08652,69,118.768,67,-178.267,0\C,61,1.59371,59,118.343,29,6.96309,0\H,73,1.09639,61,111.276,59,-145.344,0\H,73,1.09733,61,110.74,59,-37.83,0\C,73,1.50121,61,119.962,59,88.1792,0\H,76,1.09614,73,111.231,61,177.119,0\H,76,1.09748,73,105.743,61,59.302,0\C,76,1.49264,73,110.413,61,-57.7216,0\H,79,1.09622,76,109.441,73,64.7654,0\H,79,1.09707,76,108.194,73,-52.4487,0\C,79,1.54191,76,111.888,73,-169.447,0\O,82,1.14252,79,123.368,76,14.0239,0\O,82,1.36429,79,114.043,76,-171.96,0\C,84,1.48131,82,123.075,79,-168.648,0\H,85,1.09653,84,112.311,82,-53.6355,0\H,85,1.0968,84,105.826,82,68.4144,0\H,85,1.09763,84,112.76,82,178.812,0\C,21,3.38168,20,111.822,19,125.909,0\C,89,1.39608,21,95.8964,20,67.7599,0\C,90,1.35541,89,107.211,21,-125.526,0\C,91,1.36884,90,110.462,89,-4.28242,0\C,92,1.39715,91,121.642,90,-141.677,0\C,93,1.37495,92,120.972,91,2.35293,0\C,94,1.36099,93,111.152,92,136.019,0\C,95,1.37067,94,107.208,93,3.25754,0\C,96,1.39217,95,118.933,94,-144.059,0\C,97,1.38252,96,122.405,95,136.045,0\C,89,1.39741,21,124.471,20,-49.268,0\C,99,1.38444,89,119.272,21,-108.033,0\C,100,1.35985,99,116.306,89,-134.1,0\C,101,1.39798,100,124.06,99,-6.68088,0\C,90,1.4071,89,121.608,21,87.188,0\C,103,1.39212,90,123.224,89,-1.10604,0\C,103,1.40473,90,123.167,89,140.465,0\C,100,1.40818,99,117.06,89,-4.98512,0\C,106,1.39299,100,108.146,99,-139.554,0\C,107,1.38662,106,108.161,100,2.72696,0\C,107,1.40176,106,120.875,100,145.66,0\C,109,1.35533,107,120.988,106,2.59208,0\C,109,1.35817,107,121.618,106,-144.47,0\C,111,1.39523,109,121.569,107,6.82014,0\C,112,1.37621,111,120.988,109,132.368,0\C,113,1.40198,112,106.243,111,-136.25,0\C,114,1.39421,113,123.127,112,145.786,0\C,115,1.37691,114,118.423,113,2.98095,0\C,115,1.38369,114,119.556,113,-142.38,0\C,117,1.39016,115,107.11,114,143.793,0\C,118,1.37913,117,115.983,115,-137.286,0\C,119,1.3809,118,121.433,117,137.977,0\C,120,1.39114,119,122.282,118,-4.07446,0\C,121,1.34238,120,118.573,119,-134.199,0\C,120,1.39865,119,106.26,118,-149.643,0\C,122,1.39969,121,110.316,120,138.367,0\C,124,1.38169,122,107.874,121,-1.5444,0\C,125,1.402,124,120.308,122,-137.455,0\C,126,1.39063,125,121.07,124,-8.2634,0\C,124,1.40208,122,119.346,121,-143.913,0\C,113,1.40677,112,121.402,111,7.30583,0\C,129,1.40592,113,117.693,112,-8.00119,0\C,130,1.38322,129,121.051,113,5.26401,0\C,131,1.4012,130,119.926,129,-139.866,0\C,132,1.35702,131,122.061,130,2.17962,0\C,133,1.35414,132,119.619,131,0.26535,0\C,133,1.39932,132,121.053,131,141.262,0\C,135,1.38855,133,107.382,132,-144.892,0\C,136,1.38771,135,118.642,133,137.022,0\C,137,1.37967,136,119.258,135,-138.574,0\C,116,1.41366,115,118.746,114,-11.6584,0\C,104,1.41418,103,117.905,90,1.71389,0\C,140,1.40665,104,118.714,103,132.028,0\C,141,1.3503,140,107.079,104,-138.837,0\C,142,1.38593,141,110.603,140,0.0556528,0\C,143,1.4094,142,107.819,141,1.59661,0\C,94,1.42778,93,117.254,92,1.10534,0\C,145,1.38943,94,122.896,93,-3.82041,0\C,125,1.46589,124,111.141,122,9.65651,0\C,147,1.46149,125,129.713,124,146.059,0\C,148,1.4851,147,63.1541,125,104.669,0\C,148,1.50711,147,122.292,125,-3.18921,0\C,150,1.39772,148,123.602,147,-50.9044,0\H,151,1.08534,150,110.746,148,4.71473,0\C,151,1.41411,150,122.818,148,-178.607,0\H,153,1.08588,151,122.944,150,177.022,0\C,150,1.42398,148,118.202,147,132.765,0\H,155,1.08603,150,112.863,148,-9.50851,0\C,155,1.39893,150,122.574,148,-177.811,0\H,157,1.08659,155,115.635,150,-178.913,0\C,153,1.45571,151,118.184,150,7.68912,0\H,159,1.08587,153,119.505,151,173.416,0\C,148,1.57697,147,123.261,125,-151.099,0\H,161,1.09669,148,109.212,147,-42.7706,0\H,161,1.09711,148,103.016,147,-166.916,0\C,161,1.61977,148,112.687,147,82.5026,0\H,164,1.09676,161,112.836,148,35.9457,0\H,164,1.0973,161,109.453,148,149.831,0\C,164,1.58028,161,117.766,148,-92.9188,0\H,167,1.09632,164,119.037,161,-134.206,0\H,167,1.09719,164,105.796,161,-11.4953,0\C,167,1.52755,164,113.334,161,101.899,0\O,170,1.22657,167,124.584,164,15.3756,0\O,170,1.3048,167,110.767,164,-162.388,0\C,172,1.4465,170,123.428,167,177.693,0\H,173,1.09666,172,110.523,170,74.1002,0\H,173,1.09684,172,109.328,170,-169.708,0\H,173,1.09725,172,104.754,170,-41.4112,0\\\@

 Total job time:  876.99s(wall), 8301.27s(cpu) 
 Mon Oct 15 05:11:45 2018

        *************************************************************
        *                                                           *
        *  Thank you very much for using Q-Chem.  Have a nice day.  *
        *                                                           *
        *************************************************************


