
Running Job 1 of 1 ./6/27.qcin
qchem ./6/27.qcin_52202.0 /tmpu/cab_g/afmv_a/scratch_qchem/qchem52202/ 1
/tmpu/appuserlic/qchem4.4/serial-multicore/exe/qcprog.exe_s ./6/27.qcin_52202.0 /tmpu/cab_g/afmv_a/scratch_qchem/qchem52202/
Check license passed

                  Welcome to Q-Chem
     A Quantum Leap Into The Future Of Chemistry


 Q-Chem 4.4, Q-Chem, Inc., Pleasanton, CA (2016)

 Y. Shao,  Z. Gan,  E. Epifanovsky,  A. T. B. Gilbert,  M. Wormit,  
 J. Kussmann,  A. W. Lange,  A. Behn,  J. Deng,  X. Feng,  D. Ghosh,  
 M. Goldey,  P. R. Horn,  L. D. Jacobson,  I. Kaliman,  F. Rob,  
 R. Z. Khaliullin,  T. Kus,  A. Landau,  J. Liu,  E. I. Proynov,  Y. M. Rhee,  
 R. M. Richard,  M. A. Rohrdanz,  R. P. Steele,  E. J. Sundstrom,  
 H. L. Woodcock III,  P. M. Zimmerman,  D. Zuev,  B. Albrecht,  E. Alguire,  
 B. Austin,  S. A. Baeppler,  G. J. O. Beran,  Y. A. Bernard,  E. Berquist,  
 K. Brandhorst,  K. B. Bravaya,  S. T. Brown,  D. Casanova,  C.-M. Chang,  
 Y. Chen,  S. H. Chien,  K. D. Closser,  M. P. Coons,  D. L. Crittenden,  
 S. Dasgupta,  M. Diedenhofen,  R. A. DiStasio Jr.,  H. Do,  A. D. Dutoi,  
 R. G. Edgar,  P.-T. Fang,  S. Fatehi,  Q. Feng,  L. Fusti-Molnar,  
 A. Ghysels,  A. Golubeva-Zadorozhnaya,  J. Gomes,  A. Gunina,  
 M. W. D. Hanson-Heine,  P. H. P. Harbach,  A. W. Hauser,  J. E. Herr,  
 E. G. Hohenstein,  Z. C. Holden,  K. Hui,  T.-C. Jagau,  H. Ji,  B. Kaduk,  
 K. Khistyaev,  Jaehoon Kim,  Jihan Kim,  R. A. King,  P. Klunzinger,  
 K. Koh,  D. Kosenkov,  T. Kowalczyk,  C. M. Krauter,  A. Kunitsa,  
 K. U. Lao,  A. Laurent,  K. V. Lawler,  J. Lee,  D. Lefrancois,  S. Lehtola,  
 S. V. Levchenko,  C. Y. Lin,  Y.-S. Lin,  F. Liu,  E. Livshits,  
 R. C. Lochan,  A. Luenser,  P. Manohar,  S. F. Manzer,  S.-P. Mao,  Y. Mao,  
 N. Mardirossian,  A. V. Marenich,  L. A. Martinez-Martinez,  S. A. Maurer,  
 N. J. Mayhall,  J.-M. Mewes,  A. F. Morrison,  K. Nanda,  T. S. Nguyen-Beck,  
 C. M. Oana,  R. Olivares-Amaya,  D. P. O'Neill,  J. A. Parkhill,  
 T. M. Perrine,  R. Peverati,  P. A. Pieniazek,  F. Plasser,  A. Prociuk,  
 D. R. Rehn,  E. Rosta,  N. J. Russ,  N. Sergueev,  S. M. Sharada,  
 S. Sharma,  D. W. Small,  A. Sodt,  T. Stauch,  T. Stein,  D. Stuck,  
 Y.-C. Su,  A. J. W. Thom,  T. Tsuchimochi,  L. Vogt,  O. Vydrov,  T. Wang,  
 M. A. Watson,  J. Wenzel,  A. White,  C. F. Williams,  V. Vanovschi,  
 K. Yao,  S. Yeganeh,  S. R. Yost,  Z.-Q. You,  I. Y. Zhang,  X. Zhang,  
 Y. Zhao,  B. R. Brooks,  G. K. L. Chan,  D. M. Chipman,  C. J. Cramer,  
 W. A. Goddard III,  M. S. Gordon,  W. J. Hehre,  A. Klamt,  
 H. F. Schaefer III,  M. W. Schmidt,  C. D. Sherrill,  D. G. Truhlar,  
 A. Warshel,  X. Xu,  A. Aspuru-Guzik,  R. Baer,  A. T. Bell,  N. A. Besley,  
 J.-D. Chai,  A. Dreuw,  B. D. Dunietz,  T. R. Furlani,  S. R. Gwaltney,  
 C.-P. Hsu,  Y. Jung,  J. Kong,  D. S. Lambrecht,  W. Liang,  C. Ochsenfeld,  
 V. A. Rassolov,  L. V. Slipchenko,  J. E. Subotnik,  T. Van Voorhis,  
 J. M. Herbert,  A. I. Krylov,  P. M. W. Gill,  M. Head-Gordon

 Contributors to earlier versions of Q-Chem not listed above: 
 R. D. Adamson,  J. Baker,  E. F. C. Byrd,  A. K. Chakraborty,  C.-L. Cheng,  
 H. Dachsel,  R. J. Doerksen,  G. Hawkins,  A. Heyden,  S. Hirata,  
 G. Kedziora,  F. J. Keil,  C. Kelley,  P. P. Korambath,  W. Kurlancheek,  
 A. M. Lee,  M. S. Lee,  D. Liotard,  I. Lotan,  P. E. Maslen,  N. Nair,  
 D. Neuhauser,  R. Olson,  B. Peters,  J. Ritchie,  N. E. Schultz,  
 N. Shenvi,  A. C. Simmonett,  K. S. Thanthiriwatte,  Q. Wu,  W. Zhang

 Please cite Q-Chem as follows:
 Y. Shao et al., Mol. Phys. 113, 184-215 (2015)
 DOI: 10.1080/00268976.2014.952696

 Q-Chem 4.4.2 for Intel X86 Linux

 Parts of Q-Chem use Armadillo 5.200.1 (Boston Tea Smuggler).
 http://arma.sourceforge.net/

 Q-Chem begins on Mon Oct 15 05:26:34 2018  

Host: 
0

     Scratch files written to /tmpu/cab_g/afmv_a/scratch_qchem/qchem52202//
 Dec716 11556_ 22328  22283 4050   
Processing $rem in /tmpu/appuserlic/qchem4.4/serial-multicore/config/preferences.
 MEM_TOTAL  2000 
FILE_GEOM_ORG=        593

Checking the input file for inconsistencies... 	...done.

--------------------------------------------------------------
User input:
--------------------------------------------------------------
$comment
SP
$end

$rem
MEM_STATIC 5000
MEM_TOTAL 20000
JOBTYPE SP
EXCHANGE B3LYP
BASIS 6-31g(d,p)
$end

$molecule
0 1
O         -23.879000     11.685000      6.441000
C         -24.715000     12.898000      6.596000
H         -24.013000     13.737000      6.675000
H         -25.225000     12.941000      7.567000
H         -25.413000     13.032000      5.761000
O         -23.179000     12.096000      4.398000
C         -23.135000     11.431000      5.326000
C         -22.138000     10.266000      5.488000
H         -22.596000      9.373000      5.929000
H         -21.358000     10.617000      6.175000
C         -21.490000      9.904000      4.193000
H         -22.218000      9.353000      3.584000
H         -21.162000     10.788000      3.634000
C         -20.351000      8.954000      4.425000
H         -19.846000      8.807000      3.463000
H         -19.552000      9.515000      4.926000
C         -20.611000      7.564000      5.160000
C         -21.440000      6.705000      4.356000
C         -22.871000      6.773000      4.514000
H         -23.264000      7.360000      5.339000
C         -23.664000      6.038000      3.606000
H         -24.728000      6.005000      3.818000
C         -23.067000      5.356000      2.512000
H         -23.702000      4.776000      1.848000
C         -21.622000      5.331000      2.373000
H         -21.146000      4.830000      1.535000
C         -20.850000      6.108000      3.218000
H         -19.782000      6.216000      3.055000
C         -21.681000      4.878000      9.819000
C         -20.493000      3.246000      8.474000
C         -16.631000      3.207000     10.959000
C         -18.973000      9.104000     10.233000
C         -14.961000      5.374000      8.792000
C         -21.362000      4.322000      8.577000
C         -16.257000      8.386000     10.191000
C         -18.943000      3.323000     11.666000
C         -17.870000      5.035000      6.018000
C         -18.220000      9.196000      9.029000
C         -19.426000      6.889000      5.906000
C         -17.123000      6.219000      6.083000
C         -16.567000      8.325000      7.751000
C         -15.394000      7.299000     10.105000
C         -20.181000      4.589000      6.737000
C         -15.547000      5.108000     11.097000
C         -20.527000      7.523000      6.687000
C         -20.106000      8.539000      7.686000
C         -15.215000      4.533000      9.891000
C         -18.904000      6.629000     12.756000
C         -17.459000      4.873000     12.562000
C         -18.724000      4.360000     12.527000
C         -20.124000      3.312000     10.896000
C         -20.801000      8.275000      8.930000
C         -19.234000      5.372000      6.025000
C         -19.924000      2.749000      9.667000
C         -16.881000      8.848000      9.014000
C         -19.727000      3.329000      7.340000
C         -15.949000      6.181000      6.861000
C         -20.520000      7.814000     11.268000
C         -17.944000      2.732000     10.849000
C         -18.000000      7.332000      6.087000
C         -20.858000      5.434000     11.882000
C         -15.595000      7.270000      7.703000
C         -17.443000      3.887000      6.701000
C         -16.608000      7.095000     11.982000
C         -16.994000      8.258000     11.374000
C         -16.261000      3.880000      7.426000
C         -20.249000      8.638000     10.143000
C         -18.775000      8.926000      7.789000
C         -19.344000      7.780000     12.026000
C         -21.361000      6.582000      7.539000
C         -17.787000      2.540000      8.453000
C         -17.765000      8.346000      7.003000
C         -15.531000      5.046000      7.538000
C         -21.267000      6.628000     11.194000
C         -15.871000      3.336000      9.783000
C         -21.069000      4.376000     10.971000
C         -16.369000      4.303000     11.819000
C         -18.338000      2.989000      7.299000
C         -16.455000      3.052000      8.573000
C         -21.187000      5.181000      7.491000
C         -21.549000      7.118000      8.826000
C         -17.548000      6.281000     12.698000
C         -18.545000      2.441000      9.634000
C         -14.982000      6.783000      8.879000
C         -18.374000      8.635000     11.360000
C         -15.613000      6.490000     11.207000
C         -21.722000      6.290000      9.919000
C         -19.662000      5.457000     12.627000
O         -11.195000      6.469000     -1.826000
C         -11.843000      7.426000     -2.781000
H         -12.268000      6.847000     -3.610000
H         -11.241000      8.268000     -3.143000
H         -12.673000      7.977000     -2.322000
O         -13.046000      5.203000     -1.483000
C         -11.884000      5.415000     -1.254000
C         -10.943000      4.403000     -0.593000
H         -10.455000      4.917000      0.244000
H         -10.293000      4.098000     -1.423000
C         -11.583000      3.169000     -0.073000
H         -12.008000      2.617000     -0.920000
H         -10.773000      2.496000      0.231000
C         -12.544000      3.205000      1.099000
H         -12.236000      3.948000      1.846000
H         -13.434000      3.676000      0.665000
C         -12.884000      1.883000      1.904000
C         -14.041000      1.064000      1.238000
C         -13.723000      0.155000      0.210000
H         -12.681000      0.137000     -0.094000
C         -14.700000     -0.688000     -0.294000
H         -14.437000     -1.470000     -1.000000
C         -16.019000     -0.528000      0.147000
H         -16.804000     -1.145000     -0.281000
C         -16.361000      0.377000      1.188000
H         -17.368000      0.531000      1.563000
C         -15.366000      1.210000      1.676000
H         -15.604000      1.903000      2.478000
C         -14.296000     -0.193000      6.833000
C         -13.004000     -2.021000      5.821000
C          -9.283000     -1.799000      8.395000
C         -11.413000      4.021000      6.824000
C          -7.439000     -0.044000      5.879000
C         -13.960000     -0.958000      5.680000
C          -8.640000      3.305000      6.922000
C         -11.619000     -1.634000      8.971000
C         -10.339000     -0.645000      3.146000
C         -10.639000      4.015000      5.595000
C         -11.818000      1.181000      2.734000
C          -9.607000      0.512000      3.158000
C          -8.996000      2.841000      4.590000
C          -7.817000      2.136000      6.996000
C         -12.657000     -0.974000      3.800000
C          -8.051000      0.145000      8.265000
C         -12.915000      1.904000      3.448000
C         -12.475000      3.058000      4.288000
C          -7.761000     -0.605000      7.113000
C         -11.384000      1.806000      9.397000
C          -9.987000      0.106000      9.751000
C         -11.333000     -0.431000      9.698000
C         -12.798000     -1.654000      8.213000
C         -13.263000      3.016000      5.493000
C         -11.648000     -0.305000      3.056000
C         -12.495000     -2.354000      7.057000
C          -9.252000      3.699000      5.711000
C         -12.302000     -2.081000      4.603000
C          -8.412000      0.615000      3.952000
C         -12.916000      2.903000      7.911000
C         -10.587000     -2.290000      8.306000
C         -10.428000      1.630000      3.033000
C         -13.356000      0.609000      8.753000
C          -8.057000      1.778000      4.654000
C          -9.950000     -1.723000      3.938000
C          -9.097000      2.208000      8.879000
C          -9.439000      3.282000      8.090000
C          -8.825000     -1.632000      4.738000
C         -12.708000      3.518000      6.678000
C         -11.165000      3.508000      4.451000
C         -11.799000      2.952000      8.710000
C         -13.764000      1.127000      4.392000
C         -10.366000     -2.720000      5.966000
C         -10.128000      2.805000      3.794000
C          -8.074000     -0.512000      4.739000
C         -13.715000      1.708000      7.892000
C          -8.517000     -1.760000      7.206000
C         -13.637000     -0.551000      8.044000
C          -8.953000     -0.587000      9.063000
C         -10.903000     -2.396000      4.692000
C          -9.056000     -2.299000      6.014000
C         -13.686000     -0.304000      4.486000
C         -14.042000      1.838000      5.492000
C         -10.060000      1.502000      9.584000
C         -11.144000     -2.785000      7.135000
C          -7.470000      1.392000      5.826000
C         -10.819000      3.673000      8.031000
C          -8.046000      1.516000      8.192000
C         -14.306000      1.208000      6.729000
C         -12.177000      0.647000      9.513000
$end

--------------------------------------------------------------
 ----------------------------------------------------------------
             Standard Nuclear Orientation (Angstroms)
    I     Atom           X                Y                Z
 ----------------------------------------------------------------
    1      O     -11.1991652667    -2.8670518200    -1.1781747981
    2      C     -12.5825851285    -3.0781701291    -1.6638377939
    3      H     -12.5159059484    -3.0957178949    -2.7584664811
    4      H     -13.2299260498    -2.2083334266    -1.4931807029
    5      H     -13.0254502143    -4.0010993444    -1.2708273878
    6      O     -10.4164965779    -4.8499279417    -1.7152055325
    7      C     -10.2145402313    -3.8028191447    -1.3051789464
    8      C      -8.8014012722    -3.2751357179    -0.9857004912
    9      H      -8.7604083886    -2.7123401585    -0.0458735168
   10      H      -8.5338212157    -2.5894668180    -1.7992292694
   11      C      -7.7917336124    -4.3739332473    -0.9512301235
   12      H      -7.9226537875    -4.9348715985    -0.0170598639
   13      H      -7.9044665528    -5.0649928524    -1.7945858648
   14      C      -6.4027788541    -3.8071343766    -0.8947613763
   15      H      -5.7027516115    -4.6465993378    -0.9804260624
   16      H      -6.1968561520    -3.3443703572    -1.8681925773
   17      C      -5.9900106904    -2.8289255188     0.2937902102
   18      C      -5.9836526044    -3.5252383643     1.5534115803
   19      C      -7.1944816901    -3.5608220693     2.3344210074
   20      H      -8.0230354998    -2.9346741351     2.0164896485
   21      C      -7.2061485902    -4.3800896816     3.4842916362
   22      H      -8.0805044499    -4.2970526099     4.1220499566
   23      C      -6.1015512145    -5.2217973774     3.7838943605
   24      H      -6.1298753325    -5.8185173395     4.6914427235
   25      C      -4.9081224194    -5.1752971175     2.9583421594
   26      H      -4.0592260428    -5.8223480371     3.1596405677
   27      C      -4.9227035236    -4.4286347425     1.7938591457
   28      H      -4.0984792600    -4.4797442040     1.0889483809
   29      C      -6.3700058597     2.1312732281     2.5998277344
   30      C      -4.2035053629     1.3215344671     3.3308487576
   31      C      -1.6704533070     4.2084349006     0.8126662445
   32      C      -6.6955995022     1.9577035147    -2.4228805325
   33      C      -1.0800035992     1.8476282785    -1.6890610060
   34      C      -5.5241814113     1.0853200818     2.9793326993
   35      C      -4.1230487108     2.4012225898    -3.4617343508
   36      C      -3.7315451874     4.5874529682     2.0238204729
   37      C      -2.5777275978    -1.1224896902     0.5929337521
   38      C      -5.8790736966     0.8627227039    -2.8221193493
   39      C      -4.8349870607    -1.8172029893     0.0515012546
   40      C      -2.6668064163    -1.2219639461    -0.8021504161
   41      C      -3.7875033031     0.0116532060    -2.9813298971
   42      C      -2.8047477898     2.6555375736    -3.0996009906
   43      C      -4.3236283936    -0.6114441365     2.2504200577
   44      C      -1.9126864371     4.0672828642    -1.3620291855
   45      C      -6.2427345849    -1.3299301633     0.1217159318
   46      C      -6.7056047958    -0.5278774372    -1.0401621136
   47      C      -1.0538896459     3.0618700716    -0.9787561917
   48      C      -5.8104061412     4.9411221468    -0.7461095347
   49      C      -3.6279812166     5.3047713923    -0.1857724268
   50      C      -4.3358029023     5.2266737497     0.9793491202
   51      C      -4.4909543847     3.6997687549     2.8131850329
   52      C      -7.3879756621     0.6497415120    -0.5423261854
   53      C      -3.8532165564    -1.3538402734     1.1348920754
   54      C      -3.7386496030     2.6534300188     3.2677428011
   55      C      -4.6154474478     1.0856309191    -3.3396235821
   56      C      -3.3872776476     0.2979073233     2.9239571413
   57      C      -1.8871074817    -0.3168913308    -1.5490889224
   58      C      -7.4291581630     3.0486356167    -0.5788922354
   59      C      -2.4210268845     4.0436712678     1.9836428668
   60      C      -3.9925031266    -1.5630231496    -1.1683755547
   61      C      -6.4926449552     4.1119481873     1.4577592785
   62      C      -2.4091761020     0.3092165196    -2.7134060250
   63      C      -1.7439709210    -0.1628563257     1.1851124495
   64      C      -4.0753681568     4.3706636482    -2.4050454267
   65      C      -4.9018382501     3.4855016275    -3.0411777888
   66      C      -0.9635150376     0.6851869790     0.4140682436
   67      C      -7.4263395713     1.8149014248    -1.2831180509
   68      C      -5.8895077095    -0.3488744316    -2.1509647378
   69      C      -6.6456397462     3.9337112249    -1.3281826052
   70      C      -6.5656258951    -0.4042761165     1.2818223008
   71      C      -1.6503823247     1.7816218823     2.2862458080
   72      C      -4.5834108263    -0.8636256747    -2.2095999601
   73      C      -1.0664904607     0.6330491628    -0.9613145069
   74      C      -7.3369316631     3.1398149284     0.8186991233
   75      C      -0.8755236633     3.1335257186     0.3769207774
   76      C      -5.8589641925     3.4297344132     2.5192860362
   77      C      -2.2736093283     4.8392932549    -0.3043299734
   78      C      -2.0826037957     0.4999892611     2.3729661880
   79      C      -0.9078317031     1.9504717282     1.0734489149
   80      C      -5.6261380629    -0.1297892079     2.3003509210
   81      C      -7.3061751197     0.7055161793     0.8357764443
   82      C      -4.5236248620     5.1244230268    -1.2693673361
   83      C      -2.4617711091     2.8552001974     2.6963724249
   84      C      -1.9111877721     1.6278504764    -2.8089367082
   85      C      -6.2078971625     3.2232895753    -2.5194690989
   86      C      -2.7695522502     3.8700984761    -2.4359376059
   87      C      -7.2216905464     1.9210190270     1.4881392145
   88      C      -5.7224789279     4.9746594311     0.6524372310
   89      O       3.6767564756    -8.2195203741    -3.7260825071
   90      C       2.8361936809    -9.4288028063    -4.0069173113
   91      H       3.0111822649   -10.1600987302    -3.2083609468
   92      H       2.9206676672    -9.8865891476    -4.9997454995
   93      H       1.7628457159    -9.2028719041    -3.9990831888
   94      O       2.8433688215    -7.8414239418    -1.6502419289
   95      C       3.5956536177    -7.5234161740    -2.5337393228
   96      C       4.7660161247    -6.5516522680    -2.3535380096
   97      H       4.6759638223    -5.7910240186    -3.1385502700
   98      H       5.6407846602    -7.2117183410    -2.4128489588
   99      C       4.8370721343    -5.8614613537    -1.0415381829
  100      H       5.0008654143    -6.6159815602    -0.2626870935
  101      H       5.7921755264    -5.3242029339    -1.0175402496
  102      C       3.7902381691    -4.8502049134    -0.6173919096
  103      H       3.4481525805    -4.2477231241    -1.4688113971
  104      H       2.9147084917    -5.4799680353    -0.4195455190
  105      C       4.0853697316    -3.8284404246     0.5574287960
  106      C       3.7775821353    -4.4394825522     1.9662795028
  107      C       4.7737666310    -5.2025980859     2.6061702221
  108      H       5.6800584043    -5.3665662683     2.0314932200
  109      C       4.5861942241    -5.6295826047     3.9106604723
  110      H       5.3947783598    -6.1144833530     4.4493551537
  111      C       3.3489536836    -5.3969349964     4.5229944786
  112      H       3.1693724738    -5.7752573839     5.5253520795
  113      C       2.3330399450    -4.6232846136     3.8992522554
  114      H       1.3618948267    -4.4153477637     4.3374638775
  115      C       2.5441463376    -4.2074766839     2.5936505334
  116      H       1.7841026269    -3.6074410375     2.1013215978
  117      C       3.0288867923     1.2212747317     2.5531195636
  118      C       5.3138952385     0.7888902078     3.3448089119
  119      C       7.5676862480     3.6890326476     0.6933563073
  120      C       2.9440162995     0.6615929010    -2.5212394352
  121      C       8.6071478361     1.0993194810    -1.5479652496
  122      C       3.9861715321     0.3083797960     3.0801478014
  123      C       5.5293179264     1.2473120746    -3.6097878023
  124      C       5.4892697474     3.9276753768     1.8929943768
  125      C       7.2552003981    -1.7738937895     0.9334403253
  126      C       3.8381299428    -0.4340892181    -2.8522900155
  127      C       5.1422283469    -2.7440086928     0.3989431925
  128      C       7.1813281533    -1.9207839548    -0.4258179911
  129      C       6.0314612894    -0.9569332205    -2.7916125632
  130      C       6.8262043364     1.6693827048    -3.1746923846
  131      C       5.4523080121    -1.3517389210     2.5083832802
  132      C       7.4789153624     3.2969405369    -1.5764990860
  133      C       3.7024761212    -2.3402338202     0.4026011956
  134      C       3.2125142860    -1.7195081500    -0.8645029999
  135      C       8.3909628186     2.3762059562    -1.0341696017
  136      C       3.6395133386     3.6329607561    -1.0330687668
  137      C       5.6292534389     4.5099151203    -0.5443864812
  138      C       4.8746521690     4.4096493109     0.6898815978
  139      C       4.7338352678     3.0537913248     2.6871293846
  140      C       2.3397438148    -0.6385186164    -0.4844157299
  141      C       6.0434825601    -2.0932065728     1.4501222656
  142      C       5.6288986783     2.1200614662     3.1822607232
  143      C       5.0924487992    -0.0852196481    -3.4371448947
  144      C       6.1788003004    -0.2933369575     3.0985334635
  145      C       7.8945687161    -1.0278237158    -1.2993052041
  146      C       2.1367064432     1.7714694471    -0.8458508688
  147      C       6.8285795527     3.5491422066     1.8696088131
  148      C       5.9262482523    -2.3811266764    -0.8162651971
  149      C       2.8924978110     3.0249443703     1.1597861934
  150      C       7.3629533159    -0.5531217343    -2.5090328986
  151      C       7.9948134168    -0.7282214527     1.4813554160
  152      C       5.3460735778     3.3232237024    -2.6615687230
  153      C       4.6453885907     2.2870354563    -3.2345569144
  154      C       8.6578592894     0.1646025321     0.6584693346
  155      C       2.2316198039     0.4701205313    -1.3349934385
  156      C       3.9629184175    -1.4983907315    -2.0191326924
  157      C       2.8173172404     2.6713390651    -1.6303855164
  158      C       3.2544939272    -1.3623353808     1.4315290823
  159      C       7.7717948170     1.4000935623     2.3182466284
  160      C       5.3309242334    -1.8585030016    -2.0088253872
  161      C       8.6224275891     0.0172819258    -0.6814721692
  162      C       2.1803539614     1.9115529748     0.5842744752
  163      C       8.4210792947     2.6215150274     0.3271262726
  164      C       3.4827884326     2.5518223798     2.3238113495
  165      C       6.9961886273     4.1172518081    -0.5371260453
  166      C       7.4481473991     0.0306102144     2.5084799295
  167      C       8.5643627293     1.5159571830     1.1983998864
  168      C       4.1027712856    -0.9554832023     2.5166916638
  169      C       2.3856523469    -0.4821931602     0.9184316454
  170      C       4.8210747722     4.0404089632    -1.5972137278
  171      C       6.9280238834     2.4523306130     2.7143751437
  172      C       7.7841948462     0.7368555948    -2.6692298515
  173      C       3.3415269240     1.9782123781    -2.7194500706
  174      C       6.7257276864     2.9333846711    -2.6653197586
  175      C       2.2538094843     0.8194270458     1.4524422248
  176      C       3.6373276972     3.8969146311     0.3510950873
 ----------------------------------------------------------------
 Molecular Point Group                 C1    NOp =  1
 Largest Abelian Subgroup              C1    NOp =  1
 Nuclear Repulsion Energy = 34446.3979361761 hartrees
 There are      462 alpha and      462 beta electrons
 Requested basis set is 6-31G(d,p)
 There are 676 shells and 2360 basis functions

 Total QAlloc Memory Limit  20000 MB
 Mega-Array Size      4888 MB
 MEM_STATIC part      5000 MB
 A cutoff of  1.0D-08 yielded  36965 shell pairs
 There are    524121 function pairs
 
 -------------------------------------------------------
 OpenMP Integral Computing Module                       
 Release: version 1.0, May 2013, Q-Chem Inc. Pittsburgh 
 -------------------------------------------------------
 Integral Job Info:
 Integral job number is                      11
 Integral operator is                         1
 short-range coefficients                     0
 long-range coefficients              100000000
 Omega coefficients                           0
 if combine SR and LR in K                    0
 Integral screening is                        0
 Integral computing path is                   2
 max size of driver memory is            800000
 size of driver memory is                593474
 size of scratch memory is              2260544
 max col of scratch BK array               1296
 max len of scratch array in speh3          155
 max len of scratch index in speh4           18
 max int batch size is                      520
 min int batch size is                       52
 fixed nKL is                                52
 max L of basis functions is                  2
 order of int derivative is                   0
 number of shells is                        676
 number of basis is                        2360
 number of cartesian basis is              2360
 number of contracted shell pairs         36965
 number of primitive shell pairs         112623
 maxK2 (contraction) of shell pair           36
 max number of K2 of shell pair               1
 max number of CS2 of shell pair           7167
 max number of PS2 of shell pair          34572
 mem total for path MDJ                 1496968
 -------------------------------------------------------
 Smallest overlap matrix eigenvalue = 2.39E-04

 Scale SEOQF with 1.000000e-02/1.000000e-02/1.000000e-02

 Standard Electronic Orientation quadrupole field applied
 Nucleus-field energy     =     0.0000001300 hartrees
 Guess from superposition of atomic densities
 Warning:  Energy on first SCF cycle will be non-variational
 A restricted hybrid HF-DFT SCF calculation will be
 performed using Pulay DIIS extrapolation
 Exchange:     0.2000 Hartree-Fock + 0.0800 Slater + 0.7200 B88
 Correlation:  0.1900 VWN1RPA + 0.8100 LYP
 Using SG-1 standard quadrature grid
 SCF converges when DIIS error is below 1.0E-05
 using 16 threads for integral computing 
 -------------------------------------------------------
 OpenMP BLAS3 based DFT computing Module                
 Release: version 1.0, May 2013, Q-Chem Inc. Pittsburgh 
 -------------------------------------------------------
 ---------------------------------------
  Cycle       Energy         DIIS Error
 ---------------------------------------
    1   -5858.8798271839      1.84E-02
    2   -5803.0866015722      1.30E-03
    3   -5802.3905724018      1.75E-03
    4   -5803.9147076394      6.63E-04
    5   -5804.1477182815      3.46E-04
    6   -5804.2345132458      1.28E-04
    7   -5804.2448220361      4.99E-05
    8   -5804.2458688221      3.34E-05
    9   -5804.2467161452      8.78E-06 Convergence criterion met
 ---------------------------------------
 SCF time:  CPU 8258.47 s  wall 854.59 s
 SCF   energy in the final basis set = -5804.2467161452
 Total energy in the final basis set = -5804.2467161452
 
 --------------------------------------------------------------
 
                    Orbital Energies (a.u.)
 --------------------------------------------------------------
 
 Alpha MOs
 -- Occupied --
-19.189 -19.177 -19.141 -19.134 -10.320 -10.308 -10.253 -10.249
-10.248 -10.243 -10.240 -10.238 -10.237 -10.237 -10.231 -10.227
-10.227 -10.225 -10.224 -10.224 -10.224 -10.224 -10.223 -10.222
-10.220 -10.220 -10.220 -10.219 -10.219 -10.219 -10.218 -10.217
-10.217 -10.217 -10.217 -10.217 -10.217 -10.216 -10.216 -10.216
-10.216 -10.216 -10.216 -10.216 -10.216 -10.215 -10.215 -10.215
-10.215 -10.215 -10.215 -10.214 -10.214 -10.214 -10.214 -10.214
-10.213 -10.213 -10.213 -10.213 -10.213 -10.213 -10.213 -10.213
-10.213 -10.212 -10.212 -10.212 -10.212 -10.212 -10.212 -10.212
-10.212 -10.212 -10.212 -10.211 -10.211 -10.211 -10.211 -10.211
-10.211 -10.211 -10.211 -10.211 -10.211 -10.211 -10.210 -10.210
-10.210 -10.210 -10.210 -10.210 -10.210 -10.210 -10.210 -10.210
-10.210 -10.210 -10.210 -10.210 -10.210 -10.210 -10.209 -10.209
-10.209 -10.209 -10.209 -10.209 -10.209 -10.209 -10.209 -10.208
-10.208 -10.208 -10.208 -10.208 -10.208 -10.208 -10.208 -10.208
-10.208 -10.207 -10.207 -10.207 -10.207 -10.206 -10.206 -10.206
-10.206 -10.206 -10.205 -10.205 -10.205 -10.205 -10.204 -10.203
-10.202 -10.201 -10.201 -10.200 -10.198 -10.198 -10.198 -10.197
-10.196 -10.195 -10.193 -10.186  -1.109  -1.086  -1.018  -1.008
 -0.984  -0.981  -0.967  -0.964  -0.963  -0.961  -0.960  -0.959
 -0.933  -0.930  -0.928  -0.927  -0.925  -0.924  -0.924  -0.921
 -0.921  -0.919  -0.898  -0.894  -0.889  -0.888  -0.886  -0.886
 -0.875  -0.872  -0.853  -0.850  -0.841  -0.841  -0.840  -0.836
 -0.836  -0.834  -0.823  -0.820  -0.811  -0.811  -0.797  -0.797
 -0.796  -0.794  -0.793  -0.793  -0.790  -0.790  -0.786  -0.781
 -0.773  -0.768  -0.768  -0.766  -0.765  -0.764  -0.761  -0.758
 -0.754  -0.753  -0.740  -0.737  -0.731  -0.731  -0.720  -0.715
 -0.714  -0.712  -0.712  -0.711  -0.709  -0.709  -0.709  -0.708
 -0.707  -0.705  -0.705  -0.704  -0.702  -0.701  -0.673  -0.671
 -0.660  -0.658  -0.657  -0.655  -0.649  -0.646  -0.632  -0.629
 -0.626  -0.626  -0.625  -0.624  -0.621  -0.621  -0.619  -0.613
 -0.613  -0.611  -0.611  -0.610  -0.610  -0.609  -0.608  -0.607
 -0.605  -0.604  -0.604  -0.601  -0.566  -0.565  -0.563  -0.559
 -0.558  -0.558  -0.557  -0.557  -0.554  -0.553  -0.552  -0.549
 -0.537  -0.536  -0.533  -0.532  -0.526  -0.526  -0.524  -0.523
 -0.522  -0.521  -0.519  -0.517  -0.515  -0.514  -0.512  -0.510
 -0.510  -0.505  -0.504  -0.501  -0.494  -0.491  -0.490  -0.487
 -0.483  -0.482  -0.482  -0.480  -0.479  -0.477  -0.475  -0.472
 -0.471  -0.471  -0.470  -0.469  -0.468  -0.467  -0.466  -0.464
 -0.464  -0.463  -0.463  -0.461  -0.459  -0.459  -0.458  -0.456
 -0.455  -0.454  -0.453  -0.450  -0.447  -0.445  -0.443  -0.443
 -0.442  -0.441  -0.439  -0.439  -0.438  -0.437  -0.435  -0.434
 -0.432  -0.432  -0.429  -0.428  -0.427  -0.426  -0.426  -0.424
 -0.424  -0.423  -0.421  -0.420  -0.420  -0.420  -0.419  -0.418
 -0.417  -0.417  -0.415  -0.414  -0.414  -0.413  -0.412  -0.411
 -0.411  -0.409  -0.408  -0.406  -0.405  -0.401  -0.398  -0.396
 -0.395  -0.393  -0.392  -0.389  -0.387  -0.387  -0.384  -0.384
 -0.381  -0.378  -0.376  -0.374  -0.371  -0.368  -0.366  -0.364
 -0.362  -0.362  -0.361  -0.360  -0.360  -0.359  -0.358  -0.357
 -0.356  -0.356  -0.355  -0.354  -0.354  -0.353  -0.351  -0.350
 -0.349  -0.348  -0.346  -0.346  -0.344  -0.344  -0.343  -0.342
 -0.340  -0.339  -0.338  -0.337  -0.335  -0.334  -0.333  -0.332
 -0.331  -0.330  -0.328  -0.327  -0.326  -0.324  -0.323  -0.322
 -0.310  -0.306  -0.301  -0.297  -0.289  -0.285  -0.272  -0.271
 -0.270  -0.269  -0.268  -0.267  -0.267  -0.266  -0.265  -0.262
 -0.260  -0.260  -0.259  -0.258  -0.257  -0.256  -0.254  -0.253
 -0.246  -0.244  -0.243  -0.242  -0.219  -0.219  -0.213  -0.211
 -0.208  -0.206  -0.205  -0.203  -0.199  -0.195
 -- Virtual --
 -0.122  -0.119  -0.116  -0.114  -0.110  -0.107  -0.076  -0.073
 -0.072  -0.070  -0.062  -0.057  -0.055  -0.050  -0.024  -0.022
 -0.020  -0.019  -0.017  -0.016  -0.016  -0.014  -0.012  -0.011
 -0.010  -0.009  -0.008  -0.005  -0.003   0.001   0.005   0.007
  0.009   0.029   0.037   0.039   0.044   0.046   0.050   0.052
  0.053   0.054   0.056   0.056   0.062   0.066   0.069   0.071
  0.072   0.073   0.074   0.077   0.082   0.083   0.085   0.086
  0.092   0.095   0.099   0.101   0.102   0.103   0.104   0.105
  0.107   0.109   0.111   0.112   0.112   0.115   0.116   0.121
  0.122   0.124   0.124   0.129   0.130   0.131   0.133   0.134
  0.138   0.141   0.145   0.148   0.153   0.154   0.155   0.156
  0.159   0.159   0.161   0.163   0.163   0.167   0.168   0.169
  0.171   0.172   0.173   0.175   0.177   0.177   0.180   0.183
  0.184   0.185   0.186   0.189   0.190   0.192   0.193   0.195
  0.195   0.196   0.196   0.202   0.203   0.205   0.206   0.211
  0.212   0.216   0.217   0.218   0.219   0.220   0.220   0.222
  0.224   0.226   0.227   0.228   0.230   0.230   0.230   0.231
  0.234   0.235   0.235   0.236   0.238   0.239   0.242   0.244
  0.246   0.247   0.248   0.250   0.252   0.255   0.260   0.262
  0.267   0.269   0.273   0.276   0.277   0.278   0.278   0.282
  0.283   0.284   0.288   0.289   0.293   0.298   0.302   0.303
  0.305   0.310   0.310   0.313   0.314   0.319   0.320   0.321
  0.323   0.324   0.326   0.328   0.329   0.333   0.334   0.336
  0.337   0.339   0.344   0.346   0.346   0.347   0.348   0.349
  0.352   0.355   0.361   0.367   0.370   0.377   0.386   0.389
  0.395   0.399   0.402   0.405   0.408   0.408   0.411   0.412
  0.414   0.415   0.416   0.419   0.420   0.422   0.425   0.427
  0.427   0.432   0.433   0.436   0.442   0.446   0.447   0.450
  0.451   0.452   0.452   0.454   0.456   0.460   0.463   0.464
  0.466   0.468   0.472   0.472   0.474   0.477   0.478   0.479
  0.479   0.480   0.481   0.482   0.483   0.484   0.487   0.488
  0.489   0.491   0.492   0.493   0.493   0.494   0.495   0.495
  0.496   0.498   0.499   0.500   0.501   0.501   0.502   0.504
  0.505   0.506   0.507   0.509   0.509   0.510   0.511   0.512
  0.513   0.514   0.514   0.516   0.517   0.517   0.518   0.519
  0.520   0.520   0.522   0.524   0.524   0.525   0.526   0.526
  0.527   0.528   0.529   0.530   0.530   0.532   0.533   0.533
  0.534   0.535   0.537   0.538   0.538   0.539   0.539   0.541
  0.542   0.542   0.542   0.543   0.544   0.545   0.545   0.546
  0.548   0.548   0.549   0.549   0.550   0.551   0.552   0.552
  0.553   0.554   0.555   0.556   0.557   0.557   0.558   0.558
  0.559   0.560   0.560   0.561   0.562   0.563   0.564   0.564
  0.566   0.566   0.568   0.568   0.569   0.570   0.571   0.572
  0.573   0.573   0.575   0.575   0.576   0.577   0.577   0.579
  0.580   0.581   0.581   0.582   0.582   0.584   0.584   0.585
  0.586   0.587   0.588   0.590   0.591   0.591   0.592   0.593
  0.594   0.594   0.597   0.597   0.598   0.598   0.599   0.599
  0.601   0.602   0.603   0.603   0.604   0.606   0.607   0.609
  0.611   0.612   0.613   0.613   0.615   0.616   0.619   0.619
  0.621   0.621   0.622   0.622   0.624   0.625   0.627   0.628
  0.628   0.629   0.629   0.632   0.632   0.634   0.635   0.635
  0.635   0.637   0.638   0.638   0.639   0.640   0.641   0.642
  0.643   0.646   0.647   0.648   0.649   0.650   0.651   0.652
  0.653   0.654   0.655   0.656   0.657   0.658   0.659   0.660
  0.661   0.662   0.663   0.664   0.664   0.665   0.666   0.667
  0.668   0.668   0.669   0.670   0.670   0.670   0.671   0.672
  0.672   0.673   0.674   0.676   0.677   0.678   0.679   0.680
  0.682   0.683   0.684   0.686   0.688   0.688   0.691   0.691
  0.693   0.694   0.695   0.696   0.697   0.698   0.699   0.700
  0.700   0.701   0.703   0.705   0.706   0.706   0.709   0.711
  0.712   0.713   0.714   0.715   0.715   0.717   0.718   0.719
  0.721   0.721   0.723   0.724   0.725   0.726   0.727   0.729
  0.729   0.730   0.730   0.731   0.732   0.733   0.736   0.738
  0.739   0.739   0.742   0.743   0.745   0.746   0.748   0.750
  0.752   0.753   0.755   0.756   0.757   0.760   0.761   0.762
  0.763   0.764   0.765   0.766   0.766   0.768   0.769   0.771
  0.771   0.772   0.773   0.774   0.775   0.776   0.777   0.778
  0.780   0.782   0.783   0.784   0.785   0.786   0.788   0.790
  0.792   0.792   0.794   0.795   0.796   0.797   0.797   0.799
  0.801   0.801   0.802   0.804   0.805   0.805   0.806   0.807
  0.807   0.808   0.809   0.810   0.810   0.811   0.812   0.813
  0.813   0.814   0.815   0.816   0.817   0.817   0.818   0.820
  0.821   0.822   0.822   0.823   0.824   0.825   0.826   0.827
  0.827   0.828   0.830   0.831   0.832   0.833   0.835   0.835
  0.837   0.838   0.839   0.841   0.843   0.844   0.848   0.848
  0.852   0.852   0.856   0.858   0.860   0.862   0.862   0.867
  0.868   0.873   0.874   0.877   0.882   0.887   0.887   0.891
  0.892   0.895   0.897   0.898   0.900   0.906   0.908   0.908
  0.910   0.912   0.916   0.918   0.918   0.921   0.923   0.924
  0.926   0.928   0.931   0.932   0.934   0.935   0.937   0.940
  0.940   0.942   0.943   0.944   0.946   0.946   0.948   0.950
  0.954   0.954   0.956   0.959   0.961   0.964   0.967   0.969
  0.972   0.974   0.977   0.978   0.981   0.984   0.985   0.989
  0.991   0.996   0.997   0.999   1.001   1.002   1.006   1.007
  1.009   1.010   1.012   1.013   1.014   1.016   1.016   1.019
  1.022   1.023   1.025   1.027   1.028   1.028   1.030   1.031
  1.035   1.036   1.037   1.038   1.039   1.040   1.042   1.043
  1.045   1.048   1.051   1.054   1.055   1.057   1.059   1.061
  1.062   1.065   1.066   1.068   1.069   1.069   1.073   1.074
  1.074   1.076   1.076   1.078   1.079   1.082   1.083   1.086
  1.086   1.088   1.091   1.093   1.093   1.095   1.097   1.099
  1.100   1.103   1.104   1.107   1.108   1.110   1.111   1.114
  1.117   1.118   1.119   1.122   1.124   1.126   1.128   1.129
  1.130   1.133   1.138   1.142   1.143   1.144   1.147   1.147
  1.148   1.151   1.153   1.155   1.157   1.159   1.161   1.163
  1.165   1.167   1.168   1.170   1.173   1.175   1.177   1.178
  1.179   1.180   1.181   1.183   1.184   1.185   1.187   1.189
  1.191   1.192   1.194   1.196   1.198   1.200   1.205   1.205
  1.206   1.208   1.211   1.212   1.214   1.217   1.218   1.221
  1.224   1.228   1.229   1.233   1.237   1.241   1.243   1.246
  1.248   1.251   1.252   1.255   1.255   1.259   1.260   1.264
  1.268   1.269   1.269   1.272   1.273   1.274   1.275   1.276
  1.279   1.281   1.283   1.286   1.289   1.290   1.293   1.295
  1.297   1.300   1.301   1.302   1.305   1.305   1.313   1.315
  1.318   1.320   1.321   1.323   1.325   1.329   1.332   1.333
  1.334   1.339   1.342   1.344   1.347   1.349   1.351   1.353
  1.354   1.356   1.359   1.362   1.363   1.365   1.365   1.368
  1.372   1.373   1.376   1.379   1.381   1.383   1.385   1.386
  1.388   1.392   1.393   1.396   1.397   1.401   1.403   1.407
  1.409   1.410   1.415   1.418   1.421   1.423   1.424   1.426
  1.426   1.433   1.436   1.438   1.441   1.442   1.447   1.448
  1.450   1.454   1.457   1.459   1.460   1.461   1.465   1.466
  1.469   1.471   1.473   1.473   1.475   1.476   1.477   1.478
  1.480   1.482   1.483   1.485   1.486   1.487   1.488   1.488
  1.495   1.497   1.502   1.504   1.509   1.512   1.516   1.518
  1.519   1.521   1.521   1.523   1.525   1.530   1.536   1.539
  1.539   1.541   1.545   1.545   1.546   1.550   1.552   1.554
  1.559   1.559   1.562   1.564   1.567   1.568   1.571   1.572
  1.577   1.578   1.581   1.582   1.586   1.588   1.589   1.593
  1.595   1.596   1.601   1.602   1.604   1.607   1.616   1.621
  1.624   1.626   1.627   1.631   1.636   1.640   1.640   1.643
  1.645   1.650   1.656   1.658   1.664   1.665   1.666   1.672
  1.676   1.682   1.684   1.687   1.690   1.693   1.695   1.697
  1.699   1.700   1.706   1.708   1.710   1.713   1.718   1.721
  1.721   1.723   1.724   1.726   1.728   1.730   1.732   1.734
  1.739   1.740   1.741   1.743   1.744   1.745   1.746   1.748
  1.749   1.751   1.752   1.754   1.755   1.758   1.759   1.760
  1.762   1.764   1.766   1.766   1.767   1.767   1.770   1.771
  1.772   1.774   1.774   1.775   1.776   1.778   1.780   1.781
  1.782   1.783   1.785   1.786   1.787   1.788   1.790   1.791
  1.792   1.793   1.794   1.795   1.797   1.797   1.798   1.801
  1.803   1.804   1.805   1.806   1.808   1.809   1.810   1.811
  1.812   1.816   1.817   1.819   1.820   1.821   1.823   1.825
  1.827   1.828   1.829   1.831   1.833   1.838   1.839   1.840
  1.842   1.847   1.850   1.851   1.853   1.855   1.856   1.857
  1.859   1.861   1.863   1.865   1.868   1.868   1.870   1.871
  1.873   1.876   1.877   1.879   1.880   1.880   1.883   1.884
  1.887   1.890   1.896   1.896   1.897   1.901   1.902   1.903
  1.907   1.908   1.909   1.913   1.914   1.917   1.921   1.923
  1.925   1.926   1.927   1.931   1.932   1.932   1.934   1.936
  1.938   1.939   1.942   1.945   1.947   1.949   1.950   1.953
  1.954   1.956   1.957   1.958   1.959   1.962   1.965   1.969
  1.971   1.974   1.976   1.977   1.978   1.981   1.985   1.986
  1.987   1.988   1.989   1.991   1.992   1.993   1.995   1.996
  1.998   1.999   2.000   2.001   2.002   2.005   2.006   2.007
  2.008   2.010   2.011   2.012   2.015   2.016   2.017   2.018
  2.020   2.020   2.022   2.024   2.024   2.025   2.026   2.027
  2.028   2.030   2.031   2.034   2.035   2.035   2.036   2.038
  2.039   2.039   2.040   2.041   2.043   2.044   2.045   2.045
  2.046   2.048   2.049   2.049   2.051   2.052   2.053   2.056
  2.056   2.058   2.059   2.060   2.061   2.063   2.065   2.066
  2.067   2.069   2.070   2.072   2.074   2.077   2.079   2.080
  2.082   2.083   2.085   2.086   2.088   2.089   2.090   2.091
  2.094   2.095   2.098   2.099   2.100   2.101   2.103   2.105
  2.107   2.111   2.115   2.116   2.116   2.119   2.121   2.123
  2.129   2.132   2.135   2.138   2.140   2.143   2.146   2.149
  2.150   2.151   2.155   2.158   2.161   2.167   2.168   2.169
  2.174   2.175   2.181   2.184   2.193   2.197   2.200   2.201
  2.204   2.211   2.215   2.219   2.221   2.222   2.224   2.228
  2.229   2.234   2.235   2.237   2.238   2.242   2.245   2.245
  2.249   2.251   2.254   2.256   2.258   2.261   2.264   2.269
  2.271   2.273   2.276   2.277   2.280   2.285   2.285   2.287
  2.287   2.289   2.292   2.295   2.295   2.296   2.299   2.301
  2.304   2.306   2.308   2.310   2.312   2.315   2.320   2.322
  2.323   2.326   2.327   2.329   2.331   2.334   2.335   2.340
  2.342   2.343   2.347   2.351   2.351   2.353   2.356   2.357
  2.358   2.360   2.362   2.363   2.365   2.367   2.369   2.371
  2.372   2.373   2.376   2.378   2.379   2.381   2.382   2.386
  2.386   2.386   2.388   2.391   2.392   2.394   2.396   2.398
  2.400   2.401   2.403   2.405   2.407   2.407   2.412   2.412
  2.413   2.415   2.416   2.417   2.417   2.421   2.422   2.424
  2.428   2.431   2.432   2.435   2.437   2.439   2.441   2.441
  2.444   2.445   2.447   2.451   2.456   2.459   2.462   2.463
  2.467   2.468   2.469   2.471   2.472   2.476   2.480   2.481
  2.482   2.485   2.487   2.488   2.491   2.492   2.493   2.495
  2.497   2.501   2.502   2.503   2.503   2.505   2.506   2.511
  2.512   2.514   2.519   2.520   2.522   2.523   2.524   2.525
  2.527   2.528   2.529   2.533   2.535   2.536   2.540   2.542
  2.544   2.545   2.548   2.550   2.554   2.557   2.560   2.564
  2.568   2.570   2.573   2.580   2.582   2.584   2.586   2.590
  2.592   2.593   2.596   2.596   2.599   2.602   2.603   2.605
  2.607   2.610   2.611   2.613   2.613   2.614   2.616   2.620
  2.622   2.624   2.627   2.628   2.629   2.631   2.633   2.634
  2.637   2.639   2.640   2.643   2.644   2.645   2.646   2.648
  2.649   2.651   2.653   2.656   2.658   2.659   2.660   2.663
  2.665   2.666   2.668   2.669   2.671   2.672   2.674   2.677
  2.679   2.679   2.681   2.682   2.684   2.688   2.690   2.691
  2.693   2.695   2.696   2.697   2.702   2.705   2.707   2.708
  2.710   2.714   2.717   2.719   2.721   2.722   2.725   2.728
  2.731   2.733   2.735   2.736   2.741   2.743   2.745   2.747
  2.749   2.751   2.754   2.756   2.759   2.762   2.764   2.765
  2.767   2.770   2.771   2.777   2.777   2.778   2.779   2.783
  2.784   2.785   2.788   2.788   2.789   2.791   2.794   2.796
  2.801   2.803   2.805   2.807   2.810   2.815   2.818   2.819
  2.824   2.826   2.830   2.836   2.839   2.840   2.843   2.844
  2.846   2.846   2.850   2.854   2.856   2.859   2.863   2.863
  2.867   2.868   2.870   2.873   2.875   2.876   2.877   2.879
  2.882   2.885   2.887   2.888   2.890   2.893   2.894   2.899
  2.900   2.902   2.904   2.907   2.907   2.909   2.910   2.911
  2.915   2.918   2.919   2.920   2.921   2.922   2.925   2.926
  2.927   2.930   2.932   2.933   2.935   2.937   2.938   2.941
  2.943   2.945   2.948   2.950   2.957   2.958   2.960   2.962
  2.963   2.966   2.968   2.970   2.972   2.977   2.979   2.981
  2.985   2.992   2.993   2.998   3.002   3.002   3.007   3.010
  3.013   3.019   3.020   3.021   3.022   3.024   3.025   3.030
  3.032   3.033   3.036   3.037   3.039   3.043   3.045   3.046
  3.049   3.050   3.055   3.058   3.058   3.063   3.066   3.067
  3.073   3.074   3.077   3.082   3.084   3.094   3.098   3.107
  3.114   3.122   3.126   3.127   3.135   3.136   3.148   3.154
  3.157   3.163   3.166   3.168   3.174   3.178   3.189   3.192
  3.201   3.208   3.216   3.231   3.233   3.235   3.239   3.242
  3.242   3.248   3.252   3.260   3.267   3.271   3.280   3.291
  3.297   3.304   3.315   3.322   3.328   3.331   3.332   3.335
  3.344   3.348   3.351   3.354   3.359   3.371   3.378   3.385
  3.391   3.400   3.405   3.411   3.412   3.416   3.423   3.429
  3.459   3.465   3.469   3.483   3.484   3.493   3.495   3.498
  3.499   3.503   3.514   3.517   3.517   3.531   3.541   3.559
  3.560   3.564   3.585   3.588   3.589   3.594   3.600   3.609
  3.621   3.626   3.690   3.699   3.833   3.872   3.985   4.023
  4.067   4.075   4.078   4.083   4.085   4.089   4.097   4.098
  4.107   4.108   4.108   4.110   4.115   4.117   4.118   4.120
  4.125   4.126   4.131   4.135   4.143   4.145   4.149   4.152
  4.154   4.162   4.163   4.167   4.170   4.176   4.179   4.180
  4.190   4.193   4.197   4.204   4.211   4.221   4.222   4.236
  4.242   4.244   4.245   4.248   4.252   4.256   4.261   4.264
  4.271   4.276   4.278   4.282   4.289   4.291   4.294   4.297
  4.307   4.312   4.320   4.332   4.372   4.385   4.389   4.395
  4.396   4.399   4.404   4.409   4.413   4.415   4.417   4.420
  4.423   4.425   4.427   4.433   4.436   4.447   4.454   4.468
  4.476   4.478   4.481   4.506   4.529   4.537   4.548   4.555
  4.558   4.565   4.617   4.621   4.625   4.627   4.635   4.640
  4.646   4.654   4.666   4.686   4.693   4.697   4.701   4.703
  4.704   4.706   4.715   4.718   4.745   4.763   4.776   4.796
  4.824   4.836   4.857   4.863   4.874   4.885   4.893   4.898
  4.902   4.909   4.948   4.960   4.966   4.973   4.985   4.988
  4.992   5.004   5.013   5.014   5.168   5.173   5.187   5.195
  5.207   5.214   5.220   5.232   5.323   5.340   5.350   5.354
  5.359   5.373
 --------------------------------------------------------------
 
          Ground-State Mulliken Net Atomic Charges

     Atom                 Charge (a.u.)
  ----------------------------------------
      1 O                    -0.500578
      2 C                    -0.085033
      3 H                     0.124407
      4 H                     0.128609
      5 H                     0.134287
      6 O                    -0.414193
      7 C                     0.585344
      8 C                    -0.266663
      9 H                     0.123746
     10 H                     0.132153
     11 C                    -0.170409
     12 H                     0.114803
     13 H                     0.124521
     14 C                    -0.193790
     15 H                     0.105428
     16 H                     0.097678
     17 C                    -0.000372
     18 C                     0.090708
     19 C                    -0.100777
     20 H                     0.096643
     21 C                    -0.092114
     22 H                     0.094139
     23 C                    -0.093027
     24 H                     0.094415
     25 C                    -0.095388
     26 H                     0.094362
     27 C                    -0.085725
     28 H                     0.096390
     29 C                    -0.014273
     30 C                     0.023951
     31 C                    -0.037790
     32 C                     0.019278
     33 C                    -0.002122
     34 C                    -0.013151
     35 C                    -0.005421
     36 C                    -0.000165
     37 C                     0.007199
     38 C                    -0.000622
     39 C                    -0.100967
     40 C                     0.005103
     41 C                    -0.012055
     42 C                     0.008772
     43 C                    -0.029835
     44 C                     0.017517
     45 C                    -0.077844
     46 C                     0.013552
     47 C                     0.035880
     48 C                    -0.005177
     49 C                     0.002506
     50 C                     0.005506
     51 C                     0.008217
     52 C                     0.002379
     53 C                     0.026609
     54 C                    -0.010266
     55 C                    -0.000974
     56 C                    -0.017600
     57 C                     0.005555
     58 C                    -0.011088
     59 C                     0.017671
     60 C                     0.014301
     61 C                    -0.016828
     62 C                    -0.026651
     63 C                     0.009564
     64 C                     0.001812
     65 C                    -0.006812
     66 C                    -0.000094
     67 C                     0.000371
     68 C                     0.008874
     69 C                    -0.006968
     70 C                     0.009693
     71 C                    -0.000314
     72 C                     0.004992
     73 C                     0.005966
     74 C                    -0.013201
     75 C                    -0.003454
     76 C                    -0.000839
     77 C                    -0.004158
     78 C                    -0.017064
     79 C                     0.000613
     80 C                     0.034452
     81 C                     0.029848
     82 C                    -0.004087
     83 C                    -0.001438
     84 C                    -0.020325
     85 C                    -0.014583
     86 C                     0.007036
     87 C                     0.016401
     88 C                    -0.000498
     89 O                    -0.492987
     90 C                    -0.087696
     91 H                     0.133880
     92 H                     0.132114
     93 H                     0.128905
     94 O                    -0.454126
     95 C                     0.594173
     96 C                    -0.258701
     97 H                     0.134294
     98 H                     0.145231
     99 C                    -0.177023
    100 H                     0.112262
    101 H                     0.099424
    102 C                    -0.192757
    103 H                     0.097325
    104 H                     0.140957
    105 C                     0.001709
    106 C                     0.088569
    107 C                    -0.098781
    108 H                     0.088534
    109 C                    -0.083271
    110 H                     0.094093
    111 C                    -0.093647
    112 H                     0.086679
    113 C                    -0.083241
    114 H                     0.094003
    115 C                    -0.109446
    116 H                     0.091192
    117 C                    -0.027235
    118 C                     0.036489
    119 C                    -0.003404
    120 C                    -0.028615
    121 C                    -0.028531
    122 C                    -0.034394
    123 C                    -0.013947
    124 C                    -0.011399
    125 C                     0.034100
    126 C                    -0.019044
    127 C                    -0.082824
    128 C                    -0.000777
    129 C                     0.002651
    130 C                     0.026730
    131 C                     0.003248
    132 C                     0.018379
    133 C                    -0.101075
    134 C                     0.023834
    135 C                     0.032553
    136 C                     0.022200
    137 C                    -0.039189
    138 C                    -0.019737
    139 C                     0.012988
    140 C                    -0.017066
    141 C                     0.036061
    142 C                    -0.000110
    143 C                    -0.031000
    144 C                    -0.047011
    145 C                    -0.024192
    146 C                    -0.007373
    147 C                     0.034084
    148 C                     0.026212
    149 C                    -0.030907
    150 C                     0.011865
    151 C                    -0.006907
    152 C                    -0.011855
    153 C                     0.011030
    154 C                    -0.008261
    155 C                     0.026198
    156 C                     0.037312
    157 C                    -0.006173
    158 C                     0.051948
    159 C                     0.025466
    160 C                    -0.015589
    161 C                     0.031265
    162 C                    -0.003356
    163 C                    -0.017440
    164 C                     0.016660
    165 C                    -0.007189
    166 C                    -0.010303
    167 C                    -0.021092
    168 C                     0.014329
    169 C                     0.013394
    170 C                     0.022171
    171 C                    -0.028735
    172 C                    -0.019062
    173 C                    -0.000541
    174 C                    -0.017135
    175 C                     0.009885
    176 C                     0.022231
  ----------------------------------------
  Sum of atomic charges =     0.000000

 -----------------------------------------------------------------
                    Cartesian Multipole Moments
 -----------------------------------------------------------------
    Charge (ESU x 10^10)
                 0.0000
    Dipole Moment (Debye)
         X      -1.6835      Y      -4.2343      Z       0.0115
       Tot       4.5567
    Quadrupole Moments (Debye-Ang)
        XX    -782.2120     XY     -15.8165     YY    -788.0737
        XZ      -3.6278     YZ       2.9864     ZZ    -796.8257
    Octopole Moments (Debye-Ang^2)
       XXX    -672.8576    XXY    -182.4091    XYY     177.1172
       YYY    -523.7875    XXZ      -7.4615    XYZ      62.5474
       YYZ     -90.6017    XZZ     -86.7636    YZZ    -242.9693
       ZZZ     -12.6362
    Hexadecapole Moments (Debye-Ang^3)
      XXXX -139062.1863   XXXY    -209.0676   XXYY  -33741.8188
      XYYY   -1537.9377   YYYY  -49811.6047   XXXZ     716.6629
      XXYZ    -466.4784   XYYZ    -638.7694   YYYZ    1675.1768
      XXZZ  -27922.4462   XYZZ      60.1074   YYZZ  -11276.2862
      XZZZ      48.9965   YZZZ     249.6697   ZZZZ  -22143.7200
 -----------------------------------------------------------------
Archival summary:
1\1\mn251\SP\ProcedureUnspecified\6-31G**\428\afmv_a\MonOct1505:41:042018MonOct1505:41:042018\0\\#,ProcedureUnspecified,6-31G**,\\0,1\C\C,1,1.38022\C,2,1.3861,1,119.513\C,1,1.38665,2,119.275,3,3.76928,0\C,4,1.4018,1,108.54,2,146.391,0\C,5,1.35533,4,108.414,1,-6.46868,0\C,4,1.4024,1,121.219,2,-3.66276,0\C,7,1.40146,4,120.444,1,1.68728,0\C,7,1.40503,4,119.308,1,140.138,0\C,6,1.40681,5,121.268,4,-135.988,0\C,10,1.3864,6,119.167,5,143.494,0\C,11,1.4006,10,123.12,6,-4.24019,0\C,12,1.40614,11,118.171,10,2.94042,0\C,13,1.36924,12,105.854,11,-137.262,0\C,13,1.37325,12,119.215,11,-2.86781,0\C,14,1.37669,13,108.584,12,-0.765998,0\C,16,1.35831,14,111.349,13,-2.26704,0\C,16,1.38794,14,119.787,13,147.737,0\C,18,1.3845,16,120.745,14,-2.25963,0\C,19,1.39059,18,108.021,16,-143.22,0\C,19,1.39251,18,122.077,16,5.96494,0\C,18,1.39881,16,120.557,14,-141.511,0\C,22,1.36793,18,108.795,16,144.172,0\C,14,1.40698,13,123.191,12,144.592,0\C,20,1.41002,19,118.63,18,139.812,0\C,25,1.38356,20,120.11,19,-137.245,0\C,26,1.38511,25,109.211,20,148.387,0\C,27,1.38994,26,120.286,25,-147.794,0\C,25,1.4026,20,122.033,19,5.83423,0\C,27,1.4051,26,107.052,25,-2.36044,0\C,30,1.38653,27,123.34,26,-143.343,0\C,21,1.41277,19,118.474,18,-136.71,0\C,10,1.41336,6,122.004,5,-2.66498,0\C,33,1.36653,10,104.689,6,144.821,0\C,34,1.40989,33,111.826,10,2.50103,0\C,35,1.36552,34,118.988,33,-146.393,0\C,36,1.36551,35,116.746,34,137.382,0\C,33,1.4121,10,116.752,6,3.958,0\C,38,1.37099,33,119.668,10,-3.95236,0\C,38,1.38692,33,117.567,10,136.461,0\C,40,1.39567,38,109.947,33,-143.013,0\C,41,1.38961,40,104.523,38,0.274298,0\C,40,1.39766,38,121.173,33,1.12648,0\C,43,1.39773,40,119.314,38,-2.73132,0\C,44,1.41202,43,109.152,40,-145.235,0\C,45,1.40924,44,118.693,43,140.995,0\C,46,1.40171,45,121.415,44,-133.617,0\C,47,1.40114,46,108.172,45,141.304,0\C,41,1.41258,40,124.649,38,147.918,0\C,49,1.40677,41,115.178,40,-8.65985,0\C,50,1.38165,49,108.396,41,-137.403,0\C,51,1.38125,50,120.168,49,147.456,0\C,52,1.36141,51,121.505,50,-136.696,0\C,53,1.35974,52,110.464,51,142.131,0\C,50,1.38209,49,120.795,41,8.06351,0\C,55,1.39531,50,122.459,49,-147.298,0\C,56,1.4036,55,115.24,50,5.2661,0\C,57,1.39953,56,117.08,55,134.943,0\C,28,1.48577,27,120.768,26,142.772,0\C,59,1.49135,28,115.698,27,-4.7404,0\C,59,1.52986,28,131.94,27,69.5966,0\C,61,1.43928,59,124.974,28,157.675,0\C,62,1.41406,61,117.465,59,133.959,0\H,63,1.08575,62,119.291,61,-7.22251,0\C,63,1.38338,62,119.727,61,176.592,0\H,65,1.0862,63,119.062,62,176.435,0\C,62,1.4413,61,118.847,59,-62.6101,0\H,67,1.08611,62,117.906,61,9.12309,0\C,67,1.41193,62,117.553,61,-172.683,0\H,69,1.08542,67,116.154,62,-172.693,0\C,69,1.42069,67,120.604,62,5.34654,0\H,71,1.08652,69,118.768,67,-178.267,0\C,61,1.59371,59,118.343,28,6.96309,0\H,73,1.09639,61,111.276,59,-145.344,0\H,73,1.09733,61,110.74,59,-37.83,0\C,73,1.50121,61,119.962,59,88.1792,0\H,76,1.09614,73,111.231,61,177.119,0\H,76,1.09748,73,105.743,61,59.302,0\C,76,1.49264,73,110.413,61,-57.7216,0\H,79,1.09622,76,109.441,73,64.7654,0\H,79,1.09707,76,108.194,73,-52.4487,0\C,79,1.54191,76,111.888,73,-169.447,0\O,82,1.14252,79,123.368,76,14.0239,0\O,82,1.36429,79,114.043,76,-171.96,0\C,84,1.48131,82,123.075,79,-168.648,0\H,85,1.09653,84,112.311,82,-53.6355,0\H,85,1.0968,84,105.826,82,68.4144,0\H,85,1.09763,84,112.76,82,178.812,0\C,15,3.12693,13,84.7293,12,139.529,0\C,89,1.39709,15,87.9623,13,-171.47,0\C,90,1.40489,89,106.993,15,116.68,0\C,90,1.41307,89,119.349,15,-101.936,0\C,92,1.33896,90,121.414,89,-135.506,0\C,92,1.41228,90,118.315,89,4.57207,0\C,94,1.40152,92,121.184,90,-3.05266,0\C,95,1.39348,94,122.07,92,1.34181,0\C,96,1.37422,95,112.173,94,-142.896,0\C,97,1.3933,96,107.868,95,-2.74305,0\C,98,1.38953,97,104.61,96,0.367645,0\C,97,1.39911,96,119.827,95,134.59,0\C,100,1.37126,97,122.34,96,-143.621,0\C,101,1.38666,100,119.231,97,11.7258,0\C,102,1.37585,101,121.089,100,-5.84967,0\C,101,1.40785,100,106.623,97,154.844,0\C,100,1.40911,97,123.175,96,11.6891,0\C,105,1.38154,100,108,97,-154.251,0\C,105,1.40324,100,116.777,97,-8.25254,0\C,107,1.38825,105,117.989,100,-134.008,0\C,108,1.3961,107,118.47,105,-5.40122,0\C,109,1.38497,108,115.452,107,139.045,0\C,110,1.37756,109,123.085,108,1.60328,0\C,109,1.40179,108,124.031,107,5.55032,0\C,112,1.39197,109,111.009,108,136.31,0\C,113,1.38799,112,105.879,109,2.71109,0\C,113,1.39622,112,119.752,109,-142.98,0\C,114,1.40573,113,117.581,112,-140.638,0\C,116,1.37682,114,120.779,113,-6.08418,0\C,111,1.4071,110,125.592,109,-141.808,0\C,118,1.4129,111,109.463,110,141.285,0\C,119,1.40653,118,106.251,111,5.69398,0\C,120,1.38868,119,109.838,118,-0.481526,0\C,117,1.41489,116,120.552,114,8.21982,0\C,122,1.38355,117,118.005,116,134.629,0\C,123,1.39326,122,121.464,117,5.34057,0\C,124,1.38631,123,119.113,122,-11.2885,0\C,125,1.34848,124,122.418,123,11.2562,0\C,126,1.38344,125,120.527,124,-145.312,0\C,127,1.38912,126,106.014,125,141.054,0\C,127,1.39308,126,120.327,125,1.51729,0\C,129,1.35543,127,120.101,126,137.891,0\C,129,1.36917,127,119.976,126,0.0514856,0\C,131,1.39269,129,111.248,127,144.316,0\C,123,1.40489,122,106.126,117,-143.88,0\C,133,1.37295,123,119.258,122,147.069,0\C,134,1.36648,133,120.015,123,-2.77018,0\C,133,1.40934,123,108.611,122,-1.71046,0\C,103,1.41533,102,110.219,101,142.959,0\C,137,1.41291,103,117.861,102,-142.181,0\C,125,1.41554,124,107.325,123,-137.3,0\C,139,1.40406,125,108.731,124,3.67479,0\C,140,1.36644,139,107.666,125,-2.06546,0\C,140,1.41978,139,115.493,125,138.564,0\C,142,1.38432,140,123.18,139,5.99568,0\C,143,1.41465,142,108.63,140,-146.468,0\C,144,1.35737,143,107.036,142,-2.96027,0\C,144,1.39469,143,118.289,142,146.061,0\C,93,1.48851,92,111.238,90,152.51,0\C,132,1.49101,131,109.016,129,7.9316,0\C,148,1.52252,132,128.55,131,148.253,0\C,149,1.56619,148,120.526,132,-155.889,0\C,150,1.40313,149,120.693,148,-112.185,0\H,151,1.08632,150,120.247,149,-0.619518,0\C,151,1.38638,150,120.353,149,172.757,0\H,153,1.08554,151,117.318,150,-179.787,0\C,150,1.40861,149,118.752,148,66.4217,0\H,155,1.08559,150,115.579,149,3.85104,0\C,155,1.38535,150,119.932,149,-172.856,0\H,157,1.08588,155,120.262,150,172.686,0\C,157,1.39994,155,118.706,150,-5.94963,0\H,159,1.08632,157,119.46,155,-176.603,0\C,149,1.58471,148,120.754,132,-6.29375,0\H,161,1.09649,149,112.66,148,171.903,0\H,161,1.09769,149,106.211,148,61.1557,0\C,161,1.51605,149,120.59,148,-66.621,0\H,164,1.0961,161,105.581,149,40.4248,0\H,164,1.09669,161,111.306,149,-68.3704,0\C,164,1.48417,161,121.631,149,162.036,0\H,167,1.09677,164,108.309,161,-53.2365,0\H,167,1.09746,164,106.817,161,-179.283,0\C,167,1.53184,164,115.822,161,66.9618,0\O,170,1.20317,167,123.986,164,7.63696,0\O,170,1.38305,167,112.08,164,174.037,0\C,172,1.49926,170,122.315,167,-166.38,0\H,173,1.09655,172,117.59,170,-176.507,0\H,173,1.09686,172,108.177,170,55.9583,0\H,173,1.0969,172,112.405,170,-61.6551,0\\\@

 Total job time:  870.08s(wall), 8285.37s(cpu) 
 Mon Oct 15 05:41:04 2018

        *************************************************************
        *                                                           *
        *  Thank you very much for using Q-Chem.  Have a nice day.  *
        *                                                           *
        *************************************************************


