
Running Job 1 of 1 ./6/28.qcin
qchem ./6/28.qcin_52276.0 /tmpu/cab_g/afmv_a/scratch_qchem/qchem52276/ 1
/tmpu/appuserlic/qchem4.4/serial-multicore/exe/qcprog.exe_s ./6/28.qcin_52276.0 /tmpu/cab_g/afmv_a/scratch_qchem/qchem52276/
Check license passed

                  Welcome to Q-Chem
     A Quantum Leap Into The Future Of Chemistry


 Q-Chem 4.4, Q-Chem, Inc., Pleasanton, CA (2016)

 Y. Shao,  Z. Gan,  E. Epifanovsky,  A. T. B. Gilbert,  M. Wormit,  
 J. Kussmann,  A. W. Lange,  A. Behn,  J. Deng,  X. Feng,  D. Ghosh,  
 M. Goldey,  P. R. Horn,  L. D. Jacobson,  I. Kaliman,  F. Rob,  
 R. Z. Khaliullin,  T. Kus,  A. Landau,  J. Liu,  E. I. Proynov,  Y. M. Rhee,  
 R. M. Richard,  M. A. Rohrdanz,  R. P. Steele,  E. J. Sundstrom,  
 H. L. Woodcock III,  P. M. Zimmerman,  D. Zuev,  B. Albrecht,  E. Alguire,  
 B. Austin,  S. A. Baeppler,  G. J. O. Beran,  Y. A. Bernard,  E. Berquist,  
 K. Brandhorst,  K. B. Bravaya,  S. T. Brown,  D. Casanova,  C.-M. Chang,  
 Y. Chen,  S. H. Chien,  K. D. Closser,  M. P. Coons,  D. L. Crittenden,  
 S. Dasgupta,  M. Diedenhofen,  R. A. DiStasio Jr.,  H. Do,  A. D. Dutoi,  
 R. G. Edgar,  P.-T. Fang,  S. Fatehi,  Q. Feng,  L. Fusti-Molnar,  
 A. Ghysels,  A. Golubeva-Zadorozhnaya,  J. Gomes,  A. Gunina,  
 M. W. D. Hanson-Heine,  P. H. P. Harbach,  A. W. Hauser,  J. E. Herr,  
 E. G. Hohenstein,  Z. C. Holden,  K. Hui,  T.-C. Jagau,  H. Ji,  B. Kaduk,  
 K. Khistyaev,  Jaehoon Kim,  Jihan Kim,  R. A. King,  P. Klunzinger,  
 K. Koh,  D. Kosenkov,  T. Kowalczyk,  C. M. Krauter,  A. Kunitsa,  
 K. U. Lao,  A. Laurent,  K. V. Lawler,  J. Lee,  D. Lefrancois,  S. Lehtola,  
 S. V. Levchenko,  C. Y. Lin,  Y.-S. Lin,  F. Liu,  E. Livshits,  
 R. C. Lochan,  A. Luenser,  P. Manohar,  S. F. Manzer,  S.-P. Mao,  Y. Mao,  
 N. Mardirossian,  A. V. Marenich,  L. A. Martinez-Martinez,  S. A. Maurer,  
 N. J. Mayhall,  J.-M. Mewes,  A. F. Morrison,  K. Nanda,  T. S. Nguyen-Beck,  
 C. M. Oana,  R. Olivares-Amaya,  D. P. O'Neill,  J. A. Parkhill,  
 T. M. Perrine,  R. Peverati,  P. A. Pieniazek,  F. Plasser,  A. Prociuk,  
 D. R. Rehn,  E. Rosta,  N. J. Russ,  N. Sergueev,  S. M. Sharada,  
 S. Sharma,  D. W. Small,  A. Sodt,  T. Stauch,  T. Stein,  D. Stuck,  
 Y.-C. Su,  A. J. W. Thom,  T. Tsuchimochi,  L. Vogt,  O. Vydrov,  T. Wang,  
 M. A. Watson,  J. Wenzel,  A. White,  C. F. Williams,  V. Vanovschi,  
 K. Yao,  S. Yeganeh,  S. R. Yost,  Z.-Q. You,  I. Y. Zhang,  X. Zhang,  
 Y. Zhao,  B. R. Brooks,  G. K. L. Chan,  D. M. Chipman,  C. J. Cramer,  
 W. A. Goddard III,  M. S. Gordon,  W. J. Hehre,  A. Klamt,  
 H. F. Schaefer III,  M. W. Schmidt,  C. D. Sherrill,  D. G. Truhlar,  
 A. Warshel,  X. Xu,  A. Aspuru-Guzik,  R. Baer,  A. T. Bell,  N. A. Besley,  
 J.-D. Chai,  A. Dreuw,  B. D. Dunietz,  T. R. Furlani,  S. R. Gwaltney,  
 C.-P. Hsu,  Y. Jung,  J. Kong,  D. S. Lambrecht,  W. Liang,  C. Ochsenfeld,  
 V. A. Rassolov,  L. V. Slipchenko,  J. E. Subotnik,  T. Van Voorhis,  
 J. M. Herbert,  A. I. Krylov,  P. M. W. Gill,  M. Head-Gordon

 Contributors to earlier versions of Q-Chem not listed above: 
 R. D. Adamson,  J. Baker,  E. F. C. Byrd,  A. K. Chakraborty,  C.-L. Cheng,  
 H. Dachsel,  R. J. Doerksen,  G. Hawkins,  A. Heyden,  S. Hirata,  
 G. Kedziora,  F. J. Keil,  C. Kelley,  P. P. Korambath,  W. Kurlancheek,  
 A. M. Lee,  M. S. Lee,  D. Liotard,  I. Lotan,  P. E. Maslen,  N. Nair,  
 D. Neuhauser,  R. Olson,  B. Peters,  J. Ritchie,  N. E. Schultz,  
 N. Shenvi,  A. C. Simmonett,  K. S. Thanthiriwatte,  Q. Wu,  W. Zhang

 Please cite Q-Chem as follows:
 Y. Shao et al., Mol. Phys. 113, 184-215 (2015)
 DOI: 10.1080/00268976.2014.952696

 Q-Chem 4.4.2 for Intel X86 Linux

 Parts of Q-Chem use Armadillo 5.200.1 (Boston Tea Smuggler).
 http://arma.sourceforge.net/

 Q-Chem begins on Mon Oct 15 05:41:05 2018  

Host: 
0

     Scratch files written to /tmpu/cab_g/afmv_a/scratch_qchem/qchem52276//
 Dec716 11556_ 22328  22283 4050   
Processing $rem in /tmpu/appuserlic/qchem4.4/serial-multicore/config/preferences.
 MEM_TOTAL  2000 
FILE_GEOM_ORG=        593

Checking the input file for inconsistencies... 	...done.

--------------------------------------------------------------
User input:
--------------------------------------------------------------
$comment
SP
$end

$rem
MEM_STATIC 5000
MEM_TOTAL 20000
JOBTYPE SP
EXCHANGE B3LYP
BASIS 6-31g(d,p)
$end

$molecule
0 1
O         -22.649000     -8.477000    -13.717000
C         -22.776000     -7.807000    -14.973000
H         -23.120000     -6.778000    -14.808000
H         -23.542000     -8.330000    -15.558000
H         -21.801000     -7.714000    -15.469000
O         -21.282000    -10.203000    -14.518000
C         -21.912000     -9.644000    -13.623000
C         -21.958000    -10.257000    -12.258000
H         -21.344000     -9.691000    -11.546000
H         -21.503000    -11.255000    -12.270000
C         -23.461000    -10.319000    -11.868000
H         -23.722000     -9.262000    -11.733000
H         -24.008000    -10.613000    -12.772000
C         -23.700000    -11.054000    -10.560000
H         -23.380000    -12.095000    -10.698000
H         -23.043000    -10.645000     -9.782000
C         -25.166000    -11.048000    -10.185000
C         -26.086000    -11.849000    -11.098000
C         -26.702000    -11.241000    -12.146000
H         -26.477000    -10.206000    -12.388000
C         -27.635000    -11.976000    -12.925000
H         -28.289000    -11.425000    -13.594000
C         -27.877000    -13.335000    -12.689000
H         -28.657000    -13.860000    -13.233000
C         -27.232000    -13.917000    -11.602000
H         -27.446000    -14.933000    -11.285000
C         -26.285000    -13.218000    -10.879000
H         -25.888000    -13.745000    -10.017000
C         -29.171000     -7.516000     -9.221000
C         -30.041000     -9.692000     -8.395000
C         -29.741000     -8.658000     -3.973000
C         -24.724000     -6.414000     -7.235000
C         -26.671000    -10.255000     -3.479000
C         -29.246000     -8.920000     -9.291000
C         -24.647000     -7.445000     -4.540000
C         -30.430000     -7.342000     -5.875000
C         -26.986000    -11.960000     -7.045000
C         -24.070000     -7.623000     -6.900000
C         -25.664000    -10.950000     -8.757000
C         -25.676000    -11.672000     -6.570000
C         -24.085000     -9.519000     -5.717000
C         -25.366000     -8.193000     -3.602000
C         -28.207000    -10.885000     -8.873000
C         -27.744000     -8.038000     -2.988000
C         -25.620000     -9.730000     -9.614000
C         -24.834000     -8.506000     -9.020000
C         -27.830000     -9.450000     -3.141000
C         -27.738000     -5.193000     -5.844000
C         -28.884000     -6.330000     -4.310000
C         -29.659000     -6.248000     -5.488000
C         -30.508000     -7.701000     -7.212000
C         -25.596000     -7.337000     -9.238000
C         -27.030000    -11.485000     -8.366000
C         -30.735000     -9.138000     -7.331000
C         -23.981000     -8.107000     -5.589000
C         -29.360000    -10.936000     -8.127000
C         -25.616000    -11.354000     -5.182000
C         -26.609000     -5.472000     -8.004000
C         -30.519000     -8.556000     -5.172000
C         -24.905000    -10.941000     -7.478000
C         -29.034000     -5.854000     -7.796000
C         -24.769000    -10.263000     -4.731000
C         -28.134000    -12.030000     -6.290000
C         -26.539000     -6.240000     -4.050000
C         -25.364000     -6.280000     -4.832000
C         -28.032000    -11.661000     -4.923000
C         -25.461000     -6.219000     -8.371000
C         -24.106000     -8.674000     -7.844000
C         -26.571000     -5.168000     -6.643000
C         -26.895000     -9.066000     -9.932000
C         -29.943000    -10.805000     -5.749000
C         -24.080000     -9.869000     -7.109000
C         -26.769000    -11.357000     -4.346000
C         -27.856000     -5.786000     -8.552000
C         -29.073000     -9.832000     -3.688000
C         -29.855000     -6.947000     -8.165000
C         -28.950000     -7.543000     -3.497000
C         -29.333000    -11.507000     -6.812000
C         -29.142000    -10.929000     -4.618000
C         -28.124000     -9.663000     -9.626000
C         -26.873000     -7.690000     -9.694000
C         -27.733000     -5.694000     -4.559000
C         -30.648000     -9.615000     -6.014000
C         -25.455000     -9.578000     -3.718000
C         -25.414000     -5.753000     -6.162000
C         -26.494000     -7.430000     -3.251000
C         -27.967000     -6.877000     -9.415000
C         -28.973000     -5.467000     -6.422000
O         -11.217000    -12.433000    -10.831000
C         -10.356000    -13.568000    -10.865000
H          -9.623000    -13.462000    -10.057000
H          -9.872000    -13.649000    -11.846000
H         -10.865000    -14.456000    -10.470000
O         -12.383000    -12.885000    -12.720000
C         -12.172000    -12.198000    -11.788000
C         -12.848000    -10.915000    -11.536000
H         -12.113000    -10.236000    -11.087000
H         -13.616000    -11.053000    -10.766000
C         -13.629000    -10.326000    -12.722000
H         -12.879000     -9.834000    -13.352000
H         -14.069000    -11.102000    -13.360000
C         -14.728000     -9.295000    -12.232000
H         -14.268000     -8.522000    -11.603000
H         -15.176000     -8.808000    -13.107000
C         -15.932000    -10.017000    -11.471000
C         -16.668000    -11.079000    -12.314000
C         -17.831000    -10.828000    -13.027000
H         -18.379000     -9.902000    -12.884000
C         -18.501000    -11.906000    -13.714000
H         -19.487000    -11.816000    -14.160000
C         -17.939000    -13.160000    -13.817000
H         -18.499000    -13.898000    -14.383000
C         -16.865000    -13.433000    -13.016000
H         -16.387000    -14.408000    -13.024000
C         -16.235000    -12.454000    -12.284000
H         -15.357000    -12.688000    -11.689000
C         -20.605000     -9.223000     -8.562000
C         -19.726000    -11.317000     -7.663000
C         -18.196000     -9.783000     -3.665000
C         -16.972000     -5.682000     -8.269000
C         -14.838000     -9.488000     -4.691000
C         -19.922000    -10.466000     -8.738000
C         -15.275000     -6.100000     -6.097000
C         -20.247000     -9.308000     -4.896000
C         -15.665000    -11.583000     -8.041000
C         -15.768000     -6.309000     -8.501000
C         -15.903000    -10.160000     -9.952000
C         -14.701000    -10.552000     -7.969000
C         -14.366000     -7.815000     -7.597000
C         -15.051000     -7.057000     -5.073000
C         -17.885000    -11.472000     -9.012000
C         -16.609000     -8.168000     -3.598000
C         -16.842000     -9.161000    -10.525000
C         -16.750000     -7.746000    -10.150000
C         -15.900000     -9.398000     -3.775000
C         -19.362000     -6.008000     -5.704000
C         -18.947000     -7.447000     -3.986000
C         -20.076000     -7.923000     -4.726000
C         -20.676000     -9.790000     -6.130000
C         -17.988000     -7.199000     -9.898000
C         -16.452000    -11.361000     -9.188000
C         -20.096000    -11.011000     -6.352000
C         -14.906000     -6.555000     -7.391000
C         -18.470000    -11.980000     -7.807000
C         -14.289000    -10.024000     -6.701000
C         -19.196000     -5.999000     -8.103000
C         -19.319000    -10.167000     -4.379000
C         -14.911000     -9.613000     -9.031000
C         -20.769000     -7.476000     -7.032000
C         -13.996000     -8.674000     -6.572000
C         -16.221000    -12.005000     -6.873000
C         -17.093000     -6.137000     -4.770000
C         -16.534000     -5.542000     -5.883000
C         -15.848000    -11.482000     -5.621000
C         -18.047000     -6.133000     -8.963000
C         -15.633000     -7.271000     -9.408000
C         -18.775000     -5.533000     -6.875000
C         -18.334000     -9.403000    -10.266000
C         -18.003000    -11.907000     -5.431000
C         -14.740000     -8.265000     -8.875000
C         -14.830000    -10.522000     -5.539000
C         -20.158000     -6.973000     -8.186000
C         -16.944000    -10.359000     -3.823000
C         -20.933000     -8.877000     -7.208000
C         -18.016000     -8.397000     -3.464000
C         -17.642000    -12.247000     -6.715000
C         -16.881000    -11.418000     -4.731000
C         -18.775000    -10.531000     -9.573000
C         -18.984000     -8.155000     -9.954000
C         -18.467000     -6.343000     -4.667000
C         -19.245000    -11.262000     -5.237000
C         -14.373000     -8.308000     -5.299000
C         -17.365000     -5.315000     -6.981000
C         -16.154000     -7.032000     -4.209000
C         -20.119000     -8.069000     -9.135000
C         -20.410000     -6.979000     -5.741000
$end

--------------------------------------------------------------
 ----------------------------------------------------------------
             Standard Nuclear Orientation (Angstroms)
    I     Atom           X                Y                Z
 ----------------------------------------------------------------
    1      O       0.0259277236     5.0049422183     3.1253104730
    2      C       0.0499554625     5.8774948262     4.2569639598
    3      H      -0.4039744708     5.3736382659     5.1197954510
    4      H      -0.5613571782     6.7560081825     4.0181729670
    5      H       1.0815582905     6.1019817097     4.5581138303
    6      O       1.6498104359     6.1721071662     1.9046152115
    7      C       0.8353163654     5.2607642594     2.0329098552
    8      C       0.6184508884     4.2996032762     0.9058566492
    9      H       1.0558070045     3.3182150898     1.1292237361
   10      H       1.1536051698     4.6334631719     0.0084601565
   11      C      -0.9171994609     4.2551367841     0.6718614874
   12      H      -1.2870543473     3.7512642721     1.5734793969
   13      H      -1.2806023723     5.2846322772     0.7764480718
   14      C      -1.3038040170     3.4305393473    -0.5441919589
   15      H      -0.8768627894     3.9196157466    -1.4294323013
   16      H      -0.8215090253     2.4462963326    -0.4906081085
   17      C      -2.8064971885     3.3648487415    -0.7097666455
   18      C      -3.4911882103     4.6786086957    -1.0658607165
   19      C      -3.9765183358     5.4812767525    -0.0821927544
   20      H      -3.8049148445     5.2331955928     0.9615610384
   21      C      -4.7017208148     6.6507303585    -0.4343498612
   22      H      -5.2818198379     7.1449798165     0.3390068460
   23      C      -4.8610894246     7.0396325659    -1.7702007958
   24      H      -5.4927306079     7.8849144413    -2.0280553412
   25      C      -4.3559228021     6.1861107780    -2.7462260214
   26      H      -4.5306948361     6.3573593339    -3.8038978363
   27      C      -3.6046458738     5.0788126290    -2.4032788151
   28      H      -3.3108941910     4.4499337952    -3.2379064933
   29      C      -7.2050891982     1.8038403671     2.0579013597
   30      C      -8.0081027549     2.1155200353    -0.2728017557
   31      C      -8.5299736646    -2.3146600905    -1.1752400124
   32      C      -3.2572643644    -1.2460809296     2.2748533506
   33      C      -5.4568939730    -2.6735072601    -2.8021250477
   34      C      -7.1461432484     2.4536385998     0.8104925928
   35      C      -3.5360018275    -3.2480962941     0.2142333208
   36      C      -9.0076255416    -1.0242731611     0.8074176123
   37      C      -5.0326908248     1.2683805880    -2.8667615864
   38      C      -2.5654537065    -1.1731138898     1.0429053709
   39      C      -3.5391990256     2.1408846838    -1.2214814132
   40      C      -3.8484764633     0.4832389275    -2.7902245448
   41      C      -2.6112322493    -1.4534452348    -1.1738148781
   42      C      -4.3322637960    -3.6476512369    -0.8640206962
   43      C      -6.0244658048     2.6897201451    -1.1392702688
   44      C      -6.7832559473    -3.8186332158    -1.0029726199
   45      C      -3.4602345484     2.4005080091     0.2451969225
   46      C      -2.8912268896     1.2239882614     1.1174581033
   47      C      -6.7207743948    -3.0893439673    -2.2231292687
   48      C      -6.5529741415    -2.4288595827     2.7741025103
   49      C      -7.8332905015    -3.1230564447     1.0894299204
   50      C      -8.4080888085    -1.9599124995     1.6477632161
   51      C      -8.8333522036     0.3317777545     1.0382611045
   52      C      -3.7049542484     1.0828156285     2.2631662132
   53      C      -4.8995917798     2.2632613897    -1.8843671469
   54      C      -8.9128531082     1.0670411677    -0.2202007819
   55      C      -2.6519144257    -2.1637287617     0.0569516603
   56      C      -7.2757206058     2.2576544145    -1.5083320896
   57      C      -4.0452891968    -0.8983137168    -3.0797846231
   58      C      -5.0642207373    -0.5937803274     3.4330254409
   59      C      -9.1059905673    -1.1403572493    -0.5899995789
   60      C      -3.0045880589     0.8532769166    -1.7394199733
   61      C      -7.4482777030    -0.1738857751     2.9750145794
   62      C      -3.3813447232    -1.9040272003    -2.2681140464
   63      C      -6.2788740390     0.8351020084    -3.2567950071
   64      C      -5.5796386786    -3.8271635807     1.0860237189
   65      C      -4.2929938425    -3.3298427437     1.3876295059
   66      C      -6.4353629628    -0.5562975780    -3.4908300631
   67      C      -3.8113819514    -0.1736678172     2.9187274191
   68      C      -2.3548622337     0.1064678846     0.4813408473
   69      C      -5.2770011243    -1.9414032277     3.1417900971
   70      C      -4.7180159764     2.6500857451     0.9686206108
   71      C      -8.2510706464     0.1868892825    -2.3872849131
   72      C      -2.3471320583    -0.0673071114    -0.9110199160
   73      C      -5.3154905600    -1.4304205040    -3.4427789259
   74      C      -6.1722795578     0.2555386018     3.3639457274
   75      C      -7.8192008721    -2.2138930522    -2.3543808189
   76      C      -8.0999916169     0.7545316220     2.1275707104
   77      C      -7.9272377348    -3.3421310720    -0.3527469845
   78      C      -7.4162546808     1.3104911134    -2.5756309487
   79      C      -7.6393696609    -0.9219190161    -2.9639165646
   80      C      -5.9244612344     2.8483394396     0.2862194735
   81      C      -4.8542609010     1.8713969740     2.1199611852
   82      C      -6.7162291618    -3.3737131031     1.7827142799
   83      C      -9.0028699556     0.0685761450    -1.2023166434
   84      C      -4.2811460806    -2.9619008455    -2.0751092065
   85      C      -4.1687959413    -2.3470391171     2.4209740335
   86      C      -5.5641989112    -4.0637066177    -0.3283082808
   87      C      -6.0452569042     1.4929697573     2.7314898942
   88      C      -7.6477574946    -1.5712870452     2.7540089164
   89      O      11.1254922908     1.9204031286    -1.5602888508
   90      C      12.0750189075     2.2545613171    -2.5689709163
   91      H      12.6531963016     1.3531373863    -2.8024977837
   92      H      12.7189636595     3.0746600897    -2.2284548967
   93      H      11.5865068172     2.3585456498    -3.5457990466
   94      O      10.3295315966     4.0096101805    -1.1944453493
   95      C      10.3242713478     2.8569321339    -0.9569171389
   96      C       9.5078945365     2.2331784665     0.0971365905
   97      H      10.0976611369     1.4182671002     0.5341283779
   98      H       8.6384967064     1.7437749252    -0.3571756223
   99      C       8.8847770286     3.1975527100     1.1194794340
  100      H       9.6829171820     3.4206101820     1.8368926063
  101      H       8.6243362183     4.1662791993     0.6761290386
  102      C       7.6353501104     2.5424450445     1.8410252210
  103      H       7.9171822095     1.5792778450     2.2856032386
  104      H       7.2970754659     3.2087369487     2.6442209403
  105      C       6.3894035261     2.3804346604     0.8554336503
  106      C       5.8965116428     3.7040789421     0.2347788291
  107      C       4.8493909400     4.4545735405     0.7488168546
  108      H       4.2075165060     4.0502799383     1.5252013561
  109      C       4.3970678265     5.6330792344     0.0491875739
  110      H       3.4938332792     6.1778467965     0.3072721645
  111      C       5.0744154362     6.1329631726    -1.0418143802
  112      H       4.6809403562     7.0440788830    -1.4818661085
  113      C       6.0215065460     5.3293080581    -1.6134461557
  114      H       6.5766182681     5.6459345485    -2.4913821680
  115      C       6.4356639352     4.1584283251    -1.0229554209
  116      H       7.2206898341     3.5593224556    -1.4751406653
  117      C       1.2506849038     0.3229879890     0.3167963739
  118      C       2.1471486813     0.2115160767    -1.9524776748
  119      C       2.8604856578    -4.2720272064    -2.2114177953
  120      C       4.4667686836    -2.0587362844     3.4484754135
  121      C       6.3033761841    -4.0983439677    -1.4818946931
  122      C       2.0579865798     0.8611819023    -0.7325488102
  123      C       5.8129889717    -4.1441147521     2.1792218603
  124      C       1.0067088589    -2.9853095097    -1.2865090709
  125      C       6.2226027768    -0.0952862281    -1.9961498733
  126      C       5.7420719721    -1.8186735116     2.9874543863
  127      C       6.1803512260     1.0757956862     0.0919775070
  128      C       7.0690350080    -0.7594579543    -1.0797059873
  129      C       7.1008832994    -2.2717344287     1.2556277257
  130      C       5.9471983460    -4.7101064560     0.8845241214
  131      C       4.1913985567     1.1390350546    -1.5121845988
  132      C       4.2695151907    -5.2857656686    -0.7559958271
  133      C       5.2657701084     1.3541663199     1.2295636223
  134      C       5.1724050146     0.4241196575     2.3598778109
  135      C       5.1014073404    -4.7568092338    -1.7928519122
  136      C       1.7245310385    -3.7748437344     2.0582563957
  137      C       1.9738320716    -4.7997239129     0.0378753389
  138      C       1.0272807043    -3.7345342170    -0.0971373303
  139      C       0.8297582708    -1.6059843704    -1.2139029454
  140      C       3.8673050656     0.2051558109     2.7395170567
  141      C       5.6188356192     0.9852075271    -1.3236467401
  142      C       1.5415218475    -1.0165547894    -2.2250856093
  143      C       6.4276910693    -2.8702086925     2.3093244453
  144      C       3.4621762245     0.3779812139    -2.4824143869
  145      C       7.2197197724    -2.1848023845    -1.1248652300
  146      C       2.2815151247    -1.6651289660     3.0690532713
  147      C       1.9076157326    -3.2687568566    -2.2736151475
  148      C       6.9563860895    -0.1547491355     0.2146287706
  149      C       0.6871287840    -1.7274625307     1.2643522647
  150      C       7.3699325832    -2.9057195560     0.0510193490
  151      C       5.5205430953    -0.8637673606    -2.8725019445
  152      C       3.8115220711    -4.9778338120     1.5738585190
  153      C       4.4925567413    -4.3297114730     2.5845039621
  154      C       5.6359700646    -2.2655354606    -2.9159163274
  155      C       3.5635534457    -1.0548856739     3.3175243318
  156      C       6.1069224888    -0.6402233793     2.4930280661
  157      C       2.4529723241    -3.0310739206     2.9843313157
  158      C       3.7780074623     1.4982475848     0.8867635377
  159      C       3.5238848202    -1.8620759791    -3.4028109434
  160      C       6.9824530642    -0.8763519967     1.3762185535
  161      C       6.5399427043    -2.9196686547    -2.0676290937
  162      C       1.4339401724    -1.0147725120     2.2090171191
  163      C       4.1663802748    -4.1278335281    -2.6564924324
  164      C       0.6758024909    -0.9676399796     0.0630136755
  165      C       2.8847149144    -5.0510368849    -1.0339825046
  166      C       4.1191598632    -0.6425839391    -3.1724551588
  167      C       4.4690167197    -2.8955245361    -3.2393643998
  168      C       3.3279943256     1.4212755692    -0.4318256651
  169      C       2.9803273006     0.8303365312     1.8842349328
  170      C       2.4622629017    -4.7309109848     1.3300351995
  171      C       2.2159412162    -2.0684767487    -2.9099547257
  172      C       6.7585025075    -4.1230292435    -0.1512784197
  173      C       3.8370632112    -3.2868932088     3.2406688042
  174      C       4.7191050188    -5.2879473557     0.5357882984
  175      C       1.7229310993     0.2737421644     1.6093904245
  176      C       0.7846267394    -3.1508741757     1.1808990578
 ----------------------------------------------------------------
 Molecular Point Group                 C1    NOp =  1
 Largest Abelian Subgroup              C1    NOp =  1
 Nuclear Repulsion Energy = 34961.0712560705 hartrees
 There are      462 alpha and      462 beta electrons
 Requested basis set is 6-31G(d,p)
 There are 676 shells and 2360 basis functions

 Total QAlloc Memory Limit  20000 MB
 Mega-Array Size      4888 MB
 MEM_STATIC part      5000 MB
 A cutoff of  1.0D-08 yielded  38364 shell pairs
 There are    535661 function pairs
 
 -------------------------------------------------------
 OpenMP Integral Computing Module                       
 Release: version 1.0, May 2013, Q-Chem Inc. Pittsburgh 
 -------------------------------------------------------
 Integral Job Info:
 Integral job number is                      11
 Integral operator is                         1
 short-range coefficients                     0
 long-range coefficients              100000000
 Omega coefficients                           0
 if combine SR and LR in K                    0
 Integral screening is                        0
 Integral computing path is                   2
 max size of driver memory is            800000
 size of driver memory is                593474
 size of scratch memory is              2260544
 max col of scratch BK array               1296
 max len of scratch array in speh3          155
 max len of scratch index in speh4           18
 max int batch size is                      520
 min int batch size is                       52
 fixed nKL is                                52
 max L of basis functions is                  2
 order of int derivative is                   0
 number of shells is                        676
 number of basis is                        2360
 number of cartesian basis is              2360
 number of contracted shell pairs         38364
 number of primitive shell pairs         115326
 maxK2 (contraction) of shell pair           36
 max number of K2 of shell pair               1
 max number of CS2 of shell pair           7285
 max number of PS2 of shell pair          34572
 mem total for path MDJ                 1521512
 -------------------------------------------------------
 Smallest overlap matrix eigenvalue = 2.35E-04

 Scale SEOQF with 1.000000e-02/1.000000e-02/1.000000e-01

 Standard Electronic Orientation quadrupole field applied
 Nucleus-field energy     =    -0.0000002192 hartrees
 Guess from superposition of atomic densities
 Warning:  Energy on first SCF cycle will be non-variational
 A restricted hybrid HF-DFT SCF calculation will be
 performed using Pulay DIIS extrapolation
 Exchange:     0.2000 Hartree-Fock + 0.0800 Slater + 0.7200 B88
 Correlation:  0.1900 VWN1RPA + 0.8100 LYP
 Using SG-1 standard quadrature grid
 SCF converges when DIIS error is below 1.0E-05
 using 16 threads for integral computing 
 -------------------------------------------------------
 OpenMP BLAS3 based DFT computing Module                
 Release: version 1.0, May 2013, Q-Chem Inc. Pittsburgh 
 -------------------------------------------------------
 ---------------------------------------
  Cycle       Energy         DIIS Error
 ---------------------------------------
    1   -5858.7083799082      1.83E-02
    2   -5803.1354973895      1.29E-03
    3   -5802.4073869593      1.76E-03
    4   -5803.9703128522      6.59E-04
    5   -5804.2113245970      3.10E-04
    6   -5804.2765994440      1.29E-04
    7   -5804.2874088950      4.81E-05
    8   -5804.2884119527      3.22E-05
    9   -5804.2891584465      8.69E-06 Convergence criterion met
 ---------------------------------------
 SCF time:  CPU 8389.04 s  wall 859.07 s
 SCF   energy in the final basis set = -5804.2891584465
 Total energy in the final basis set = -5804.2891584465
 
 --------------------------------------------------------------
 
                    Orbital Energies (a.u.)
 --------------------------------------------------------------
 
 Alpha MOs
 -- Occupied --
-19.202 -19.183 -19.145 -19.136 -10.325 -10.311 -10.253 -10.247
-10.244 -10.240 -10.239 -10.237 -10.237 -10.235 -10.233 -10.231
-10.231 -10.231 -10.226 -10.226 -10.224 -10.224 -10.224 -10.222
-10.222 -10.222 -10.222 -10.222 -10.222 -10.221 -10.221 -10.221
-10.221 -10.221 -10.221 -10.221 -10.220 -10.220 -10.220 -10.220
-10.219 -10.219 -10.219 -10.219 -10.219 -10.219 -10.219 -10.218
-10.218 -10.218 -10.218 -10.218 -10.218 -10.217 -10.217 -10.217
-10.217 -10.217 -10.217 -10.217 -10.216 -10.216 -10.216 -10.216
-10.216 -10.216 -10.216 -10.216 -10.215 -10.215 -10.215 -10.215
-10.215 -10.215 -10.215 -10.215 -10.214 -10.214 -10.214 -10.214
-10.214 -10.214 -10.213 -10.213 -10.213 -10.213 -10.213 -10.213
-10.213 -10.213 -10.213 -10.213 -10.213 -10.213 -10.213 -10.213
-10.213 -10.213 -10.213 -10.212 -10.212 -10.211 -10.211 -10.211
-10.211 -10.211 -10.211 -10.210 -10.210 -10.210 -10.210 -10.210
-10.210 -10.210 -10.210 -10.210 -10.209 -10.209 -10.209 -10.209
-10.209 -10.209 -10.208 -10.207 -10.207 -10.206 -10.206 -10.206
-10.206 -10.206 -10.205 -10.203 -10.203 -10.202 -10.202 -10.201
-10.200 -10.197 -10.197 -10.197 -10.196 -10.194 -10.194 -10.194
-10.190 -10.184 -10.184 -10.183  -1.099  -1.095  -1.025  -1.018
 -0.986  -0.981  -0.969  -0.966  -0.963  -0.963  -0.961  -0.959
 -0.934  -0.934  -0.931  -0.928  -0.926  -0.925  -0.923  -0.922
 -0.920  -0.919  -0.897  -0.896  -0.893  -0.888  -0.886  -0.884
 -0.875  -0.873  -0.858  -0.850  -0.846  -0.843  -0.840  -0.838
 -0.838  -0.836  -0.820  -0.820  -0.809  -0.804  -0.800  -0.798
 -0.797  -0.797  -0.795  -0.793  -0.793  -0.788  -0.786  -0.785
 -0.776  -0.770  -0.769  -0.768  -0.768  -0.766  -0.764  -0.762
 -0.753  -0.749  -0.744  -0.736  -0.733  -0.732  -0.718  -0.717
 -0.715  -0.714  -0.714  -0.713  -0.712  -0.712  -0.711  -0.710
 -0.709  -0.707  -0.707  -0.705  -0.704  -0.702  -0.674  -0.671
 -0.664  -0.658  -0.658  -0.655  -0.647  -0.644  -0.631  -0.631
 -0.628  -0.627  -0.625  -0.623  -0.620  -0.620  -0.620  -0.618
 -0.617  -0.616  -0.615  -0.613  -0.613  -0.611  -0.608  -0.607
 -0.606  -0.604  -0.601  -0.600  -0.575  -0.565  -0.565  -0.562
 -0.561  -0.560  -0.559  -0.557  -0.556  -0.554  -0.553  -0.551
 -0.537  -0.536  -0.533  -0.532  -0.531  -0.529  -0.526  -0.526
 -0.524  -0.520  -0.519  -0.519  -0.518  -0.516  -0.514  -0.513
 -0.509  -0.507  -0.503  -0.502  -0.493  -0.492  -0.490  -0.488
 -0.487  -0.484  -0.483  -0.481  -0.480  -0.480  -0.478  -0.476
 -0.476  -0.475  -0.471  -0.470  -0.470  -0.469  -0.469  -0.468
 -0.467  -0.466  -0.464  -0.463  -0.462  -0.459  -0.459  -0.458
 -0.457  -0.454  -0.454  -0.450  -0.449  -0.446  -0.445  -0.444
 -0.442  -0.441  -0.440  -0.440  -0.438  -0.437  -0.434  -0.432
 -0.431  -0.430  -0.430  -0.428  -0.428  -0.426  -0.425  -0.424
 -0.423  -0.422  -0.422  -0.422  -0.420  -0.419  -0.419  -0.419
 -0.418  -0.417  -0.417  -0.416  -0.415  -0.413  -0.412  -0.411
 -0.411  -0.410  -0.409  -0.406  -0.404  -0.403  -0.399  -0.397
 -0.395  -0.393  -0.392  -0.391  -0.390  -0.390  -0.385  -0.384
 -0.380  -0.378  -0.376  -0.372  -0.370  -0.368  -0.368  -0.365
 -0.365  -0.363  -0.363  -0.362  -0.361  -0.360  -0.359  -0.359
 -0.357  -0.357  -0.356  -0.355  -0.354  -0.354  -0.354  -0.351
 -0.349  -0.347  -0.347  -0.346  -0.345  -0.344  -0.343  -0.342
 -0.342  -0.341  -0.341  -0.339  -0.338  -0.336  -0.334  -0.333
 -0.332  -0.331  -0.330  -0.330  -0.328  -0.327  -0.326  -0.324
 -0.310  -0.307  -0.307  -0.299  -0.289  -0.284  -0.273  -0.273
 -0.272  -0.271  -0.271  -0.269  -0.269  -0.267  -0.266  -0.265
 -0.264  -0.262  -0.261  -0.259  -0.258  -0.257  -0.254  -0.250
 -0.250  -0.245  -0.244  -0.240  -0.222  -0.217  -0.214  -0.212
 -0.211  -0.209  -0.208  -0.206  -0.204  -0.202
 -- Virtual --
 -0.124  -0.123  -0.119  -0.116  -0.109  -0.107  -0.077  -0.077
 -0.074  -0.073  -0.062  -0.056  -0.055  -0.050  -0.024  -0.021
 -0.020  -0.018  -0.018  -0.016  -0.016  -0.014  -0.014  -0.013
 -0.011  -0.010  -0.008  -0.008  -0.005  -0.002   0.000   0.002
  0.002   0.019   0.032   0.034   0.038   0.045   0.045   0.048
  0.049   0.051   0.054   0.056   0.058   0.061   0.064   0.065
  0.070   0.074   0.077   0.080   0.081   0.082   0.085   0.094
  0.094   0.096   0.097   0.099   0.102   0.103   0.104   0.109
  0.110   0.112   0.113   0.116   0.116   0.118   0.120   0.121
  0.122   0.123   0.124   0.126   0.127   0.131   0.137   0.140
  0.141   0.143   0.144   0.146   0.151   0.152   0.154   0.155
  0.159   0.160   0.161   0.163   0.165   0.167   0.169   0.171
  0.172   0.173   0.174   0.176   0.177   0.179   0.182   0.183
  0.183   0.184   0.188   0.188   0.189   0.189   0.191   0.193
  0.196   0.197   0.198   0.200   0.201   0.203   0.206   0.208
  0.210   0.212   0.214   0.214   0.218   0.218   0.219   0.220
  0.222   0.222   0.223   0.224   0.226   0.227   0.228   0.229
  0.230   0.231   0.231   0.234   0.236   0.238   0.239   0.241
  0.242   0.243   0.246   0.247   0.250   0.252   0.253   0.256
  0.259   0.270   0.272   0.272   0.273   0.276   0.278   0.280
  0.284   0.286   0.288   0.289   0.292   0.300   0.301   0.309
  0.310   0.312   0.313   0.315   0.316   0.317   0.320   0.320
  0.322   0.323   0.324   0.327   0.327   0.330   0.332   0.334
  0.336   0.336   0.341   0.344   0.345   0.346   0.351   0.352
  0.354   0.356   0.363   0.368   0.370   0.385   0.388   0.392
  0.396   0.398   0.400   0.402   0.404   0.405   0.407   0.407
  0.408   0.413   0.414   0.416   0.416   0.417   0.419   0.422
  0.428   0.430   0.433   0.434   0.437   0.443   0.444   0.447
  0.448   0.449   0.452   0.455   0.457   0.458   0.461   0.462
  0.463   0.467   0.468   0.470   0.473   0.474   0.474   0.477
  0.477   0.479   0.479   0.481   0.483   0.483   0.486   0.487
  0.488   0.489   0.490   0.492   0.492   0.494   0.496   0.497
  0.498   0.499   0.499   0.500   0.502   0.505   0.505   0.506
  0.507   0.507   0.509   0.511   0.511   0.511   0.513   0.514
  0.514   0.515   0.516   0.517   0.517   0.518   0.520   0.520
  0.521   0.521   0.522   0.523   0.524   0.524   0.525   0.526
  0.526   0.527   0.528   0.528   0.530   0.531   0.533   0.533
  0.534   0.534   0.535   0.536   0.537   0.538   0.538   0.539
  0.539   0.541   0.542   0.542   0.543   0.544   0.544   0.545
  0.545   0.546   0.547   0.548   0.548   0.549   0.549   0.550
  0.552   0.552   0.553   0.554   0.554   0.555   0.556   0.556
  0.557   0.557   0.559   0.560   0.560   0.561   0.562   0.564
  0.565   0.565   0.566   0.567   0.568   0.570   0.571   0.571
  0.572   0.572   0.573   0.574   0.575   0.576   0.579   0.579
  0.580   0.580   0.581   0.582   0.582   0.583   0.584   0.584
  0.586   0.587   0.588   0.589   0.590   0.590   0.591   0.592
  0.594   0.595   0.596   0.596   0.597   0.598   0.599   0.600
  0.600   0.601   0.603   0.604   0.606   0.607   0.608   0.609
  0.609   0.612   0.612   0.613   0.614   0.615   0.616   0.617
  0.617   0.618   0.620   0.621   0.622   0.623   0.624   0.625
  0.626   0.627   0.628   0.630   0.632   0.632   0.633   0.634
  0.636   0.636   0.637   0.638   0.639   0.640   0.641   0.643
  0.644   0.645   0.645   0.647   0.648   0.648   0.650   0.650
  0.651   0.652   0.654   0.654   0.656   0.657   0.659   0.659
  0.660   0.661   0.662   0.662   0.663   0.663   0.664   0.665
  0.665   0.666   0.668   0.668   0.669   0.669   0.670   0.671
  0.672   0.673   0.674   0.675   0.676   0.677   0.678   0.679
  0.680   0.682   0.683   0.683   0.685   0.686   0.687   0.688
  0.689   0.691   0.692   0.693   0.695   0.695   0.697   0.698
  0.699   0.700   0.701   0.702   0.703   0.704   0.705   0.706
  0.707   0.710   0.711   0.711   0.713   0.714   0.716   0.717
  0.717   0.719   0.720   0.721   0.723   0.724   0.726   0.726
  0.728   0.729   0.732   0.732   0.734   0.735   0.736   0.737
  0.739   0.740   0.741   0.742   0.744   0.745   0.747   0.747
  0.748   0.750   0.752   0.752   0.754   0.755   0.757   0.757
  0.759   0.761   0.761   0.762   0.763   0.764   0.765   0.766
  0.766   0.768   0.770   0.773   0.773   0.774   0.777   0.777
  0.778   0.780   0.780   0.781   0.782   0.784   0.785   0.786
  0.787   0.789   0.790   0.792   0.793   0.795   0.797   0.797
  0.798   0.799   0.800   0.801   0.802   0.804   0.804   0.805
  0.806   0.807   0.808   0.808   0.809   0.810   0.811   0.811
  0.812   0.813   0.814   0.814   0.815   0.816   0.816   0.817
  0.819   0.820   0.821   0.822   0.823   0.823   0.824   0.825
  0.825   0.826   0.826   0.829   0.830   0.832   0.833   0.834
  0.835   0.837   0.838   0.841   0.844   0.845   0.848   0.849
  0.854   0.856   0.857   0.860   0.861   0.862   0.865   0.865
  0.868   0.872   0.877   0.879   0.880   0.884   0.886   0.891
  0.893   0.894   0.897   0.901   0.905   0.907   0.911   0.913
  0.915   0.919   0.920   0.922   0.925   0.927   0.928   0.929
  0.929   0.932   0.934   0.935   0.936   0.938   0.939   0.942
  0.942   0.945   0.948   0.949   0.951   0.951   0.954   0.958
  0.960   0.962   0.962   0.967   0.969   0.971   0.973   0.976
  0.978   0.980   0.984   0.986   0.988   0.989   0.991   0.995
  0.996   0.996   0.998   1.002   1.003   1.006   1.009   1.009
  1.010   1.012   1.013   1.014   1.015   1.017   1.020   1.020
  1.022   1.022   1.024   1.027   1.029   1.029   1.030   1.032
  1.034   1.036   1.038   1.039   1.041   1.042   1.043   1.046
  1.047   1.049   1.052   1.053   1.054   1.056   1.058   1.061
  1.061   1.064   1.066   1.067   1.068   1.069   1.071   1.072
  1.073   1.076   1.078   1.079   1.081   1.081   1.083   1.086
  1.087   1.089   1.090   1.091   1.093   1.094   1.096   1.100
  1.101   1.102   1.106   1.107   1.108   1.111   1.112   1.116
  1.118   1.119   1.121   1.124   1.124   1.127   1.132   1.134
  1.138   1.138   1.142   1.144   1.145   1.147   1.149   1.150
  1.152   1.153   1.153   1.155   1.156   1.160   1.161   1.164
  1.166   1.167   1.168   1.169   1.170   1.171   1.173   1.175
  1.177   1.178   1.180   1.181   1.182   1.184   1.185   1.188
  1.190   1.192   1.194   1.196   1.197   1.198   1.200   1.201
  1.203   1.205   1.208   1.210   1.214   1.216   1.219   1.226
  1.227   1.231   1.236   1.236   1.237   1.238   1.242   1.243
  1.246   1.248   1.249   1.255   1.256   1.258   1.260   1.262
  1.263   1.265   1.267   1.271   1.271   1.272   1.274   1.275
  1.277   1.280   1.282   1.283   1.285   1.287   1.289   1.290
  1.291   1.296   1.297   1.303   1.304   1.307   1.308   1.309
  1.314   1.315   1.321   1.324   1.324   1.327   1.329   1.331
  1.333   1.335   1.339   1.339   1.342   1.343   1.345   1.349
  1.350   1.354   1.355   1.355   1.359   1.360   1.363   1.367
  1.369   1.372   1.375   1.377   1.381   1.384   1.385   1.388
  1.391   1.392   1.396   1.398   1.400   1.400   1.402   1.404
  1.406   1.408   1.411   1.413   1.421   1.426   1.427   1.428
  1.433   1.434   1.439   1.442   1.446   1.449   1.450   1.452
  1.454   1.457   1.460   1.462   1.463   1.465   1.466   1.468
  1.469   1.471   1.471   1.472   1.474   1.476   1.478   1.481
  1.481   1.481   1.485   1.486   1.488   1.493   1.495   1.497
  1.499   1.502   1.503   1.506   1.510   1.512   1.515   1.518
  1.522   1.524   1.530   1.533   1.536   1.538   1.540   1.542
  1.544   1.545   1.545   1.552   1.553   1.555   1.557   1.559
  1.560   1.561   1.563   1.565   1.566   1.569   1.572   1.575
  1.576   1.578   1.579   1.581   1.587   1.587   1.589   1.592
  1.594   1.596   1.598   1.600   1.609   1.615   1.621   1.625
  1.627   1.630   1.634   1.634   1.640   1.641   1.645   1.649
  1.651   1.659   1.661   1.664   1.666   1.667   1.669   1.671
  1.675   1.680   1.681   1.684   1.688   1.689   1.694   1.696
  1.696   1.698   1.700   1.706   1.707   1.708   1.713   1.716
  1.718   1.719   1.722   1.724   1.728   1.729   1.730   1.731
  1.733   1.733   1.735   1.736   1.738   1.740   1.744   1.746
  1.747   1.749   1.750   1.752   1.756   1.756   1.757   1.757
  1.759   1.762   1.763   1.764   1.766   1.767   1.768   1.769
  1.771   1.771   1.773   1.774   1.774   1.777   1.778   1.779
  1.779   1.780   1.782   1.783   1.785   1.786   1.786   1.787
  1.789   1.790   1.791   1.794   1.795   1.796   1.797   1.799
  1.800   1.802   1.803   1.805   1.806   1.808   1.809   1.810
  1.811   1.812   1.814   1.817   1.818   1.819   1.823   1.824
  1.826   1.828   1.831   1.835   1.835   1.839   1.842   1.843
  1.845   1.847   1.849   1.851   1.852   1.854   1.857   1.858
  1.861   1.861   1.862   1.864   1.866   1.868   1.869   1.871
  1.874   1.875   1.876   1.879   1.881   1.882   1.882   1.884
  1.887   1.888   1.891   1.893   1.898   1.901   1.903   1.905
  1.907   1.912   1.915   1.917   1.919   1.923   1.924   1.926
  1.927   1.929   1.931   1.931   1.933   1.936   1.939   1.940
  1.943   1.944   1.946   1.948   1.949   1.950   1.954   1.955
  1.958   1.958   1.961   1.963   1.964   1.966   1.967   1.969
  1.971   1.973   1.975   1.976   1.977   1.978   1.980   1.982
  1.983   1.984   1.988   1.990   1.991   1.992   1.993   1.994
  1.997   1.998   1.999   2.001   2.003   2.004   2.005   2.006
  2.008   2.009   2.011   2.013   2.014   2.015   2.017   2.017
  2.018   2.019   2.019   2.021   2.022   2.024   2.024   2.026
  2.028   2.028   2.030   2.031   2.033   2.033   2.034   2.036
  2.037   2.038   2.040   2.040   2.041   2.043   2.045   2.045
  2.046   2.047   2.048   2.049   2.050   2.051   2.051   2.052
  2.052   2.053   2.057   2.059   2.061   2.062   2.064   2.065
  2.066   2.068   2.070   2.071   2.072   2.073   2.077   2.077
  2.079   2.080   2.082   2.084   2.086   2.088   2.089   2.091
  2.093   2.093   2.095   2.097   2.098   2.099   2.102   2.104
  2.107   2.109   2.109   2.111   2.115   2.116   2.118   2.121
  2.124   2.127   2.128   2.134   2.135   2.141   2.144   2.145
  2.147   2.150   2.156   2.159   2.160   2.165   2.169   2.173
  2.176   2.185   2.190   2.194   2.196   2.196   2.200   2.201
  2.208   2.210   2.213   2.216   2.217   2.219   2.223   2.226
  2.228   2.229   2.233   2.235   2.237   2.239   2.240   2.242
  2.248   2.251   2.254   2.255   2.257   2.260   2.266   2.267
  2.268   2.270   2.274   2.276   2.277   2.280   2.284   2.285
  2.288   2.291   2.292   2.293   2.296   2.297   2.298   2.300
  2.302   2.304   2.306   2.307   2.310   2.314   2.315   2.318
  2.320   2.322   2.326   2.328   2.330   2.333   2.340   2.341
  2.343   2.346   2.347   2.349   2.350   2.351   2.353   2.356
  2.357   2.361   2.364   2.366   2.367   2.369   2.371   2.372
  2.373   2.373   2.375   2.376   2.379   2.382   2.384   2.384
  2.389   2.389   2.391   2.391   2.394   2.395   2.397   2.398
  2.399   2.400   2.402   2.402   2.406   2.407   2.412   2.413
  2.413   2.418   2.420   2.421   2.424   2.424   2.425   2.428
  2.430   2.431   2.436   2.438   2.441   2.442   2.446   2.447
  2.449   2.451   2.453   2.455   2.459   2.460   2.463   2.465
  2.468   2.470   2.471   2.474   2.475   2.477   2.478   2.482
  2.484   2.484   2.487   2.488   2.491   2.492   2.493   2.494
  2.495   2.498   2.501   2.502   2.503   2.504   2.506   2.507
  2.508   2.511   2.512   2.514   2.515   2.518   2.521   2.523
  2.525   2.526   2.527   2.530   2.532   2.533   2.535   2.537
  2.542   2.544   2.548   2.551   2.554   2.560   2.564   2.566
  2.568   2.572   2.574   2.579   2.580   2.582   2.583   2.587
  2.589   2.592   2.595   2.598   2.599   2.600   2.602   2.603
  2.604   2.606   2.612   2.614   2.614   2.616   2.617   2.620
  2.621   2.622   2.624   2.625   2.627   2.628   2.630   2.633
  2.634   2.635   2.637   2.639   2.641   2.642   2.644   2.645
  2.648   2.648   2.649   2.653   2.653   2.655   2.657   2.658
  2.660   2.662   2.665   2.667   2.668   2.669   2.672   2.672
  2.674   2.676   2.679   2.681   2.682   2.685   2.686   2.688
  2.691   2.694   2.697   2.702   2.704   2.705   2.709   2.711
  2.714   2.715   2.718   2.721   2.722   2.726   2.728   2.730
  2.732   2.733   2.738   2.739   2.741   2.743   2.745   2.746
  2.749   2.750   2.756   2.756   2.758   2.759   2.762   2.763
  2.765   2.767   2.770   2.772   2.772   2.774   2.778   2.779
  2.781   2.783   2.784   2.787   2.789   2.792   2.794   2.796
  2.799   2.804   2.810   2.811   2.815   2.820   2.824   2.826
  2.829   2.829   2.834   2.836   2.837   2.838   2.841   2.842
  2.844   2.849   2.850   2.852   2.854   2.859   2.862   2.862
  2.866   2.867   2.868   2.870   2.871   2.874   2.876   2.880
  2.882   2.884   2.885   2.887   2.889   2.891   2.892   2.892
  2.895   2.897   2.898   2.899   2.901   2.903   2.906   2.906
  2.910   2.912   2.912   2.916   2.917   2.918   2.919   2.922
  2.924   2.925   2.926   2.927   2.928   2.934   2.938   2.938
  2.940   2.941   2.943   2.944   2.947   2.949   2.951   2.955
  2.959   2.961   2.966   2.971   2.974   2.976   2.978   2.981
  2.982   2.987   2.989   2.992   2.993   2.996   3.000   3.002
  3.008   3.010   3.011   3.015   3.017   3.019   3.020   3.022
  3.024   3.029   3.033   3.035   3.039   3.042   3.043   3.047
  3.048   3.053   3.057   3.058   3.060   3.061   3.063   3.065
  3.069   3.073   3.075   3.081   3.089   3.090   3.095   3.097
  3.106   3.109   3.125   3.140   3.144   3.148   3.154   3.154
  3.159   3.164   3.170   3.174   3.176   3.176   3.179   3.181
  3.191   3.202   3.206   3.223   3.225   3.233   3.241   3.244
  3.252   3.259   3.261   3.262   3.268   3.277   3.282   3.291
  3.300   3.302   3.317   3.322   3.323   3.325   3.328   3.331
  3.334   3.336   3.338   3.348   3.350   3.360   3.372   3.379
  3.386   3.388   3.416   3.420   3.437   3.438   3.441   3.443
  3.449   3.453   3.462   3.471   3.476   3.483   3.490   3.494
  3.503   3.505   3.506   3.519   3.535   3.537   3.544   3.547
  3.549   3.556   3.563   3.566   3.581   3.584   3.598   3.604
  3.613   3.636   3.676   3.699   3.878   3.879   4.002   4.021
  4.068   4.074   4.076   4.080   4.090   4.091   4.093   4.096
  4.097   4.099   4.099   4.108   4.112   4.115   4.117   4.126
  4.129   4.135   4.138   4.141   4.144   4.147   4.150   4.151
  4.155   4.163   4.165   4.167   4.170   4.173   4.178   4.183
  4.189   4.190   4.202   4.203   4.211   4.217   4.238   4.240
  4.243   4.244   4.248   4.253   4.253   4.258   4.267   4.269
  4.270   4.276   4.283   4.285   4.290   4.296   4.297   4.300
  4.321   4.326   4.330   4.361   4.381   4.384   4.391   4.391
  4.397   4.398   4.401   4.405   4.409   4.412   4.413   4.415
  4.420   4.421   4.427   4.434   4.448   4.449   4.454   4.487
  4.492   4.494   4.520   4.528   4.528   4.536   4.546   4.550
  4.556   4.562   4.613   4.620   4.624   4.626   4.636   4.641
  4.642   4.656   4.677   4.687   4.690   4.691   4.697   4.700
  4.701   4.706   4.711   4.715   4.747   4.765   4.782   4.837
  4.847   4.849   4.858   4.866   4.871   4.874   4.891   4.894
  4.903   4.914   4.952   4.956   4.964   4.973   4.974   4.974
  4.983   5.001   5.009   5.012   5.158   5.164   5.179   5.184
  5.187   5.205   5.214   5.240   5.306   5.315   5.331   5.344
  5.349   5.389
 --------------------------------------------------------------
 
          Ground-State Mulliken Net Atomic Charges

     Atom                 Charge (a.u.)
  ----------------------------------------
      1 O                    -0.468026
      2 C                    -0.084622
      3 H                     0.126560
      4 H                     0.127235
      5 H                     0.134988
      6 O                    -0.471316
      7 C                     0.595851
      8 C                    -0.251905
      9 H                     0.132663
     10 H                     0.135233
     11 C                    -0.200076
     12 H                     0.127575
     13 H                     0.114725
     14 C                    -0.185018
     15 H                     0.105042
     16 H                     0.112865
     17 C                     0.018551
     18 C                     0.085117
     19 C                    -0.100953
     20 H                     0.096824
     21 C                    -0.106520
     22 H                     0.091733
     23 C                    -0.077010
     24 H                     0.093420
     25 C                    -0.085823
     26 H                     0.090259
     27 C                    -0.098915
     28 H                     0.089577
     29 C                    -0.037050
     30 C                    -0.009015
     31 C                    -0.007923
     32 C                     0.004009
     33 C                     0.001488
     34 C                     0.025778
     35 C                    -0.019824
     36 C                     0.020723
     37 C                     0.023899
     38 C                     0.004771
     39 C                    -0.115227
     40 C                     0.003184
     41 C                    -0.006148
     42 C                     0.023272
     43 C                     0.010792
     44 C                     0.004640
     45 C                    -0.066380
     46 C                     0.004838
     47 C                    -0.012464
     48 C                     0.013475
     49 C                    -0.007186
     50 C                    -0.002816
     51 C                    -0.002239
     52 C                    -0.006391
     53 C                     0.025790
     54 C                    -0.032926
     55 C                     0.012547
     56 C                    -0.011577
     57 C                    -0.033380
     58 C                    -0.006739
     59 C                     0.002413
     60 C                     0.050708
     61 C                    -0.019430
     62 C                    -0.020424
     63 C                    -0.016924
     64 C                    -0.014841
     65 C                     0.009171
     66 C                    -0.004141
     67 C                    -0.018685
     68 C                     0.016819
     69 C                     0.008667
     70 C                     0.026838
     71 C                     0.000916
     72 C                    -0.007746
     73 C                     0.006242
     74 C                     0.006840
     75 C                    -0.007176
     76 C                     0.016629
     77 C                    -0.011607
     78 C                    -0.010546
     79 C                     0.015268
     80 C                     0.001730
     81 C                     0.017500
     82 C                     0.030996
     83 C                     0.021610
     84 C                     0.014106
     85 C                    -0.022917
     86 C                    -0.016686
     87 C                     0.009628
     88 C                    -0.032162
     89 O                    -0.484826
     90 C                    -0.078587
     91 H                     0.120991
     92 H                     0.130188
     93 H                     0.118451
     94 O                    -0.447888
     95 C                     0.606591
     96 C                    -0.271099
     97 H                     0.131785
     98 H                     0.137160
     99 C                    -0.189221
    100 H                     0.104298
    101 H                     0.142142
    102 C                    -0.194726
    103 H                     0.108213
    104 H                     0.116062
    105 C                     0.010239
    106 C                     0.085553
    107 C                    -0.134739
    108 H                     0.087415
    109 C                    -0.108673
    110 H                     0.123911
    111 C                    -0.074050
    112 H                     0.089464
    113 C                    -0.088033
    114 H                     0.090061
    115 C                    -0.093392
    116 H                     0.086211
    117 C                    -0.023457
    118 C                     0.005472
    119 C                     0.015465
    120 C                     0.025831
    121 C                     0.001195
    122 C                     0.000929
    123 C                    -0.032907
    124 C                     0.005603
    125 C                    -0.002732
    126 C                    -0.001355
    127 C                    -0.073315
    128 C                     0.007087
    129 C                     0.017827
    130 C                     0.006568
    131 C                     0.005401
    132 C                    -0.005912
    133 C                    -0.100303
    134 C                     0.036472
    135 C                    -0.020021
    136 C                    -0.008350
    137 C                    -0.014191
    138 C                    -0.004978
    139 C                     0.013798
    140 C                     0.028653
    141 C                     0.025856
    142 C                    -0.008294
    143 C                    -0.003498
    144 C                    -0.016839
    145 C                    -0.030055
    146 C                    -0.013943
    147 C                     0.035906
    148 C                     0.046552
    149 C                     0.009864
    150 C                    -0.016695
    151 C                     0.013623
    152 C                     0.017048
    153 C                    -0.004888
    154 C                     0.006789
    155 C                    -0.025498
    156 C                    -0.017207
    157 C                     0.007825
    158 C                    -0.002539
    159 C                    -0.010991
    160 C                    -0.029860
    161 C                     0.035210
    162 C                     0.012088
    163 C                     0.001959
    164 C                    -0.010976
    165 C                    -0.015085
    166 C                    -0.001744
    167 C                    -0.002365
    168 C                     0.023161
    169 C                     0.001835
    170 C                     0.025176
    171 C                    -0.026126
    172 C                    -0.002233
    173 C                    -0.004888
    174 C                    -0.000706
    175 C                    -0.004796
    176 C                    -0.022692
  ----------------------------------------
  Sum of atomic charges =     0.000000

 -----------------------------------------------------------------
                    Cartesian Multipole Moments
 -----------------------------------------------------------------
    Charge (ESU x 10^10)
                 0.0000
    Dipole Moment (Debye)
         X       1.0872      Y       2.2754      Z       0.4785
       Tot       2.5668
    Quadrupole Moments (Debye-Ang)
        XX    -802.4612     XY     -27.3892     YY    -811.9166
        XZ      -4.0404     YZ       4.5505     ZZ    -790.1751
    Octopole Moments (Debye-Ang^2)
       XXX     698.7564    XXY      59.6325    XYY    -176.6551
       YYY     246.8280    XXZ    -104.4214    XYZ       3.9494
       YYZ      21.9802    XZZ     140.9795    YZZ     188.0560
       ZZZ      42.1181
    Hexadecapole Moments (Debye-Ang^3)
      XXXX -143944.9587   XXXY    -279.0444   XXYY  -33280.8567
      XYYY   -1121.4323   YYYY  -45667.2003   XXXZ   -1646.8381
      XXYZ    -100.5699   XYYZ     -38.4826   YYYZ      89.7238
      XXZZ  -27273.9046   XYZZ     182.7088   YYZZ  -10264.2942
      XZZZ    -325.5227   YZZZ     354.5393   ZZZZ  -19115.0827
 -----------------------------------------------------------------
Archival summary:
1\1\mn251\SP\ProcedureUnspecified\6-31G**\428\afmv_a\MonOct1505:55:392018MonOct1505:55:392018\0\\#,ProcedureUnspecified,6-31G**,\\0,1\C\C,1,1.4215\C,2,1.3993,1,107.611\C,3,1.3715,2,120.774,1,140.681,0\C,4,1.37927,3,120.525,2,-2.52784,0\C,5,1.39335,4,120.297,3,2.63361,0\C,6,1.41018,5,115.571,4,-134.969,0\C,7,1.3831,6,109.356,5,144.061,0\C,7,1.39317,6,122.442,5,-3.83698,0\C,9,1.38032,7,121.518,6,-2.49692,0\C,10,1.39364,9,108.486,7,146.908,0\C,10,1.3956,9,117.604,7,8.43893,0\C,12,1.39574,10,121.038,9,131.777,0\C,13,1.35671,12,109.655,10,-143.277,0\C,13,1.37716,12,121.422,10,-1.58947,0\C,15,1.32903,13,122.23,12,-142.236,0\C,9,1.41332,7,122.159,6,144.063,0\C,17,1.36779,9,118.832,7,-3.02274,0\C,17,1.40133,9,106.829,7,-145.167,0\C,14,1.41918,13,123.626,12,143.571,0\C,20,1.37672,14,117.157,13,3.41883,0\C,20,1.3817,14,121.094,13,-138.729,0\C,22,1.40228,20,121.155,14,-3.16899,0\C,23,1.37704,22,118.509,20,139.339,0\C,11,1.42043,10,120.187,9,-131.411,0\C,25,1.38623,11,121.852,10,130.138,0\C,26,1.38759,25,123.834,11,7.70209,0\C,27,1.37718,26,116.442,25,-9.52734,0\C,27,1.38744,26,118.513,25,-138.918,0\C,29,1.37511,27,110.91,26,134.285,0\C,30,1.33728,29,104.962,27,1.45173,0\C,30,1.40166,29,118.969,27,-142.963,0\C,32,1.36502,30,118.644,29,141.337,0\C,33,1.39639,32,119.582,30,-4.02342,0\C,34,1.38717,33,115.448,32,-135.974,0\C,35,1.38506,34,123.914,33,2.52611,0\C,36,1.36615,35,124.856,34,138.776,0\C,37,1.39252,36,109.086,35,-142.556,0\C,38,1.36986,37,108.765,36,-4.59912,0\C,36,1.39308,35,119.495,34,-5.3334,0\C,39,1.39616,38,117.37,37,143.789,0\C,41,1.38501,39,123.825,38,0.530924,0\C,31,1.40535,30,117.863,29,-145.541,0\C,26,1.40558,25,108.812,11,-149.329,0\C,44,1.36773,26,116.905,25,148.296,0\C,37,1.40583,36,119.411,35,-0.838498,0\C,32,1.40718,30,119.942,29,-5.44257,0\C,47,1.36068,32,122.694,30,2.46416,0\C,48,1.40864,47,121.302,32,137.878,0\C,33,1.40997,32,105.203,30,-148.077,0\C,50,1.37644,33,109.882,32,0.3453,0\C,51,1.39619,50,121.791,33,140.271,0\C,35,1.41202,34,107.983,33,144.425,0\C,48,1.41331,47,117.466,32,1.67492,0\C,42,1.42023,41,108.296,39,-139.681,0\C,55,1.39539,42,120.679,41,146.039,0\C,55,1.41149,42,107.823,41,-1.80914,0\C,46,1.4258,37,122.527,36,-142.255,0\C,45,1.45997,44,121.747,26,-147.032,0\C,21,1.46674,20,111.944,14,-150.728,0\C,59,1.52599,45,127.283,44,-64.1356,0\C,61,1.54279,59,119.24,45,-155.321,0\C,62,1.38706,61,123.801,59,-112.103,0\H,63,1.08546,62,120.661,61,10.8314,0\C,62,1.44188,61,120.12,59,61.4347,0\H,65,1.08612,62,117.362,61,2.76973,0\C,65,1.3752,62,122.021,61,-179.779,0\H,67,1.0859,65,116.197,62,-172.463,0\C,67,1.36734,65,121.973,62,-0.0664234,0\H,69,1.08563,67,125.09,65,177.316,0\C,69,1.37803,67,117.274,65,9.60476,0\H,71,1.08592,69,114.521,67,164.743,0\C,61,1.59688,59,120.16,45,-4.92986,0\H,73,1.09704,61,105.838,59,148.102,0\H,73,1.09762,61,111.18,59,30.6035,0\C,73,1.58457,61,112.093,59,-93.1984,0\H,76,1.09611,73,111.115,61,-172.644,0\H,76,1.09673,73,111.224,61,-56.133,0\C,76,1.53736,73,111.288,61,70.0633,0\H,79,1.09625,76,103.544,73,-38.7751,0\H,79,1.09675,76,114.777,73,75.1536,0\C,79,1.47193,76,115.797,73,-158.514,0\O,82,1.17691,79,124.198,76,13.8751,0\O,82,1.37226,79,110.456,76,-162.622,0\C,84,1.42503,82,122.7,79,176.539,0\H,85,1.09608,84,108.026,82,-173.959,0\H,85,1.09689,84,110.289,82,-51.5036,0\H,85,1.09711,84,110.84,82,80.8269,0\O,72,2.43966,71,141.548,69,-179.226,0\C,89,1.22899,72,124.822,71,61.5589,0\O,90,1.38344,89,127.394,72,-159.998,0\C,91,1.42918,90,120.166,89,-2.18632,0\H,92,1.09659,91,107.897,90,-79.6106,0\H,92,1.09745,91,109.59,90,163.069,0\H,92,1.09786,91,110.967,90,46.9821,0\C,90,1.49703,89,119.572,72,21.6278,0\H,96,1.09689,90,110.477,89,7.8745,0\H,96,1.0974,90,111.297,89,-107.304,0\C,96,1.55401,90,105.955,89,128.867,0\H,99,1.09675,96,106.631,90,-40.0562,0\H,99,1.09708,96,102.858,90,68.9834,0\C,99,1.51928,96,112.8,90,-173.948,0\H,102,1.09737,99,109.626,96,-51.0245,0\H,102,1.09778,99,107.739,96,63.3591,0\C,102,1.51321,99,111.336,96,-177.784,0\C,105,1.50641,102,112.916,99,77.1231,0\C,106,1.47229,105,125.009,102,-138.365,0\C,107,1.3966,106,113.197,105,157.569,0\C,108,1.39127,107,126.693,106,154.608,0\C,109,1.3768,108,116.403,107,-7.07207,0\C,110,1.38085,109,110.468,108,-138.467,0\C,111,1.37954,110,122.517,109,136.916,0\C,112,1.38655,111,119.866,110,-138.604,0\C,113,1.39321,112,120.151,111,2.0802,0\C,109,1.39548,108,121.22,107,-145.807,0\C,114,1.39747,113,121.658,112,-1.50633,0\C,116,1.39082,114,105.559,113,139.201,0\C,117,1.37922,116,108.593,114,5.10528,0\C,118,1.33839,117,110.049,116,-2.87143,0\C,115,1.39782,109,119.277,108,-2.77482,0\C,120,1.39506,115,117.111,109,135.417,0\C,121,1.38284,120,105.661,115,-140.857,0\C,107,1.40017,106,121.374,105,-62.3645,0\C,123,1.38678,107,122.311,106,-147.983,0\C,108,1.40117,107,108.544,106,-1.33655,0\C,115,1.40137,109,103.228,108,138.367,0\C,113,1.40568,112,104.778,111,149.23,0\C,127,1.35908,113,111.662,112,0.121026,0\C,128,1.40342,127,108.81,113,3.6603,0\C,129,1.38587,128,123.612,127,-135.38,0\C,118,1.40813,117,118.731,116,-144.13,0\C,128,1.40831,127,119.625,113,-138.998,0\C,132,1.39145,128,121.092,127,-1.73468,0\C,133,1.36417,132,109.542,128,143.168,0\C,131,1.412,118,121.091,117,0.0602798,0\C,135,1.39878,131,109.544,118,144.905,0\C,136,1.39868,135,108.778,131,-1.91497,0\C,137,1.3927,136,120.586,135,-138.915,0\C,138,1.40214,137,120.981,136,-3.51867,0\C,137,1.40633,136,106.831,135,3.89406,0\C,136,1.40791,135,118.591,131,-142.847,0\C,141,1.40032,136,120.329,135,1.72002,0\C,139,1.41194,138,118.954,137,6.04712,0\C,138,1.41213,137,121.178,136,138.208,0\C,144,1.40559,138,109.36,137,-145.333,0\C,125,1.41235,108,109.477,107,7.22823,0\C,146,1.39326,125,120.797,108,132.759,0\C,147,1.40318,146,123.676,125,-135.728,0\C,148,1.40213,147,120.157,146,5.74046,0\C,149,1.39759,148,123.608,147,133.694,0\C,132,1.4124,128,119.641,127,138.757,0\C,151,1.40841,132,105.86,128,-143.784,0\C,152,1.3758,151,119.214,132,137.069,0\C,153,1.40449,152,120.478,151,5.75111,0\C,140,1.41468,137,121.463,136,-143.654,0\C,155,1.39948,140,122.806,137,135.293,0\C,142,1.41479,141,123.122,136,-5.13861,0\C,157,1.3681,142,124.572,141,143.01,0\C,154,1.41505,153,120.428,152,-9.5909,0\C,159,1.37424,154,119.185,153,8.86855,0\C,155,1.42287,140,117.381,137,2.29447,0\C,161,1.41074,155,111.325,140,142.424,0\C,162,1.38048,161,106.029,155,-4.20674,0\C,145,1.42419,144,107.697,138,1.97572,0\C,149,1.48728,148,122.088,147,-9.91871,0\C,105,1.52367,102,115.746,99,-67.2375,0\C,166,1.3592,105,120.034,102,92.3776,0\H,167,1.08647,166,120.266,105,-5.20857,0\C,166,1.40062,105,120.393,102,-86.5133,0\H,169,1.08553,166,123.142,105,-6.19277,0\C,169,1.38135,166,120.675,105,-172.47,0\H,171,1.08561,169,117.122,166,170.89,0\C,171,1.39152,169,120.997,166,-9.1737,0\H,173,1.08626,171,121.46,169,176.99,0\C,173,1.40041,171,117.221,169,6.80171,0\H,175,1.08576,173,119.487,171,164.979,0\\\@

 Total job time:  874.65s(wall), 8416.70s(cpu) 
 Mon Oct 15 05:55:39 2018

        *************************************************************
        *                                                           *
        *  Thank you very much for using Q-Chem.  Have a nice day.  *
        *                                                           *
        *************************************************************


