
Running Job 1 of 1 ./6/29.qcin
qchem ./6/29.qcin_52347.0 /tmpu/cab_g/afmv_a/scratch_qchem/qchem52347/ 1
/tmpu/appuserlic/qchem4.4/serial-multicore/exe/qcprog.exe_s ./6/29.qcin_52347.0 /tmpu/cab_g/afmv_a/scratch_qchem/qchem52347/
Check license passed

                  Welcome to Q-Chem
     A Quantum Leap Into The Future Of Chemistry


 Q-Chem 4.4, Q-Chem, Inc., Pleasanton, CA (2016)

 Y. Shao,  Z. Gan,  E. Epifanovsky,  A. T. B. Gilbert,  M. Wormit,  
 J. Kussmann,  A. W. Lange,  A. Behn,  J. Deng,  X. Feng,  D. Ghosh,  
 M. Goldey,  P. R. Horn,  L. D. Jacobson,  I. Kaliman,  F. Rob,  
 R. Z. Khaliullin,  T. Kus,  A. Landau,  J. Liu,  E. I. Proynov,  Y. M. Rhee,  
 R. M. Richard,  M. A. Rohrdanz,  R. P. Steele,  E. J. Sundstrom,  
 H. L. Woodcock III,  P. M. Zimmerman,  D. Zuev,  B. Albrecht,  E. Alguire,  
 B. Austin,  S. A. Baeppler,  G. J. O. Beran,  Y. A. Bernard,  E. Berquist,  
 K. Brandhorst,  K. B. Bravaya,  S. T. Brown,  D. Casanova,  C.-M. Chang,  
 Y. Chen,  S. H. Chien,  K. D. Closser,  M. P. Coons,  D. L. Crittenden,  
 S. Dasgupta,  M. Diedenhofen,  R. A. DiStasio Jr.,  H. Do,  A. D. Dutoi,  
 R. G. Edgar,  P.-T. Fang,  S. Fatehi,  Q. Feng,  L. Fusti-Molnar,  
 A. Ghysels,  A. Golubeva-Zadorozhnaya,  J. Gomes,  A. Gunina,  
 M. W. D. Hanson-Heine,  P. H. P. Harbach,  A. W. Hauser,  J. E. Herr,  
 E. G. Hohenstein,  Z. C. Holden,  K. Hui,  T.-C. Jagau,  H. Ji,  B. Kaduk,  
 K. Khistyaev,  Jaehoon Kim,  Jihan Kim,  R. A. King,  P. Klunzinger,  
 K. Koh,  D. Kosenkov,  T. Kowalczyk,  C. M. Krauter,  A. Kunitsa,  
 K. U. Lao,  A. Laurent,  K. V. Lawler,  J. Lee,  D. Lefrancois,  S. Lehtola,  
 S. V. Levchenko,  C. Y. Lin,  Y.-S. Lin,  F. Liu,  E. Livshits,  
 R. C. Lochan,  A. Luenser,  P. Manohar,  S. F. Manzer,  S.-P. Mao,  Y. Mao,  
 N. Mardirossian,  A. V. Marenich,  L. A. Martinez-Martinez,  S. A. Maurer,  
 N. J. Mayhall,  J.-M. Mewes,  A. F. Morrison,  K. Nanda,  T. S. Nguyen-Beck,  
 C. M. Oana,  R. Olivares-Amaya,  D. P. O'Neill,  J. A. Parkhill,  
 T. M. Perrine,  R. Peverati,  P. A. Pieniazek,  F. Plasser,  A. Prociuk,  
 D. R. Rehn,  E. Rosta,  N. J. Russ,  N. Sergueev,  S. M. Sharada,  
 S. Sharma,  D. W. Small,  A. Sodt,  T. Stauch,  T. Stein,  D. Stuck,  
 Y.-C. Su,  A. J. W. Thom,  T. Tsuchimochi,  L. Vogt,  O. Vydrov,  T. Wang,  
 M. A. Watson,  J. Wenzel,  A. White,  C. F. Williams,  V. Vanovschi,  
 K. Yao,  S. Yeganeh,  S. R. Yost,  Z.-Q. You,  I. Y. Zhang,  X. Zhang,  
 Y. Zhao,  B. R. Brooks,  G. K. L. Chan,  D. M. Chipman,  C. J. Cramer,  
 W. A. Goddard III,  M. S. Gordon,  W. J. Hehre,  A. Klamt,  
 H. F. Schaefer III,  M. W. Schmidt,  C. D. Sherrill,  D. G. Truhlar,  
 A. Warshel,  X. Xu,  A. Aspuru-Guzik,  R. Baer,  A. T. Bell,  N. A. Besley,  
 J.-D. Chai,  A. Dreuw,  B. D. Dunietz,  T. R. Furlani,  S. R. Gwaltney,  
 C.-P. Hsu,  Y. Jung,  J. Kong,  D. S. Lambrecht,  W. Liang,  C. Ochsenfeld,  
 V. A. Rassolov,  L. V. Slipchenko,  J. E. Subotnik,  T. Van Voorhis,  
 J. M. Herbert,  A. I. Krylov,  P. M. W. Gill,  M. Head-Gordon

 Contributors to earlier versions of Q-Chem not listed above: 
 R. D. Adamson,  J. Baker,  E. F. C. Byrd,  A. K. Chakraborty,  C.-L. Cheng,  
 H. Dachsel,  R. J. Doerksen,  G. Hawkins,  A. Heyden,  S. Hirata,  
 G. Kedziora,  F. J. Keil,  C. Kelley,  P. P. Korambath,  W. Kurlancheek,  
 A. M. Lee,  M. S. Lee,  D. Liotard,  I. Lotan,  P. E. Maslen,  N. Nair,  
 D. Neuhauser,  R. Olson,  B. Peters,  J. Ritchie,  N. E. Schultz,  
 N. Shenvi,  A. C. Simmonett,  K. S. Thanthiriwatte,  Q. Wu,  W. Zhang

 Please cite Q-Chem as follows:
 Y. Shao et al., Mol. Phys. 113, 184-215 (2015)
 DOI: 10.1080/00268976.2014.952696

 Q-Chem 4.4.2 for Intel X86 Linux

 Parts of Q-Chem use Armadillo 5.200.1 (Boston Tea Smuggler).
 http://arma.sourceforge.net/

 Q-Chem begins on Mon Oct 15 05:55:40 2018  

Host: 
0

     Scratch files written to /tmpu/cab_g/afmv_a/scratch_qchem/qchem52347//
 Dec716 11556_ 22328  22283 4050   
Processing $rem in /tmpu/appuserlic/qchem4.4/serial-multicore/config/preferences.
 MEM_TOTAL  2000 
FILE_GEOM_ORG=        593

Checking the input file for inconsistencies... 	...done.

--------------------------------------------------------------
User input:
--------------------------------------------------------------
$comment
SP
$end

$rem
MEM_STATIC 5000
MEM_TOTAL 20000
JOBTYPE SP
EXCHANGE B3LYP
BASIS 6-31g(d,p)
$end

$molecule
0 1
O         -22.649000     -8.477000    -13.717000
C         -22.776000     -7.807000    -14.973000
H         -23.120000     -6.778000    -14.808000
H         -23.542000     -8.330000    -15.558000
H         -21.801000     -7.714000    -15.469000
O         -21.282000    -10.203000    -14.518000
C         -21.912000     -9.644000    -13.623000
C         -21.958000    -10.257000    -12.258000
H         -21.344000     -9.691000    -11.546000
H         -21.503000    -11.255000    -12.270000
C         -23.461000    -10.319000    -11.868000
H         -23.722000     -9.262000    -11.733000
H         -24.008000    -10.613000    -12.772000
C         -23.700000    -11.054000    -10.560000
H         -23.380000    -12.095000    -10.698000
H         -23.043000    -10.645000     -9.782000
C         -25.166000    -11.048000    -10.185000
C         -26.086000    -11.849000    -11.098000
C         -26.702000    -11.241000    -12.146000
H         -26.477000    -10.206000    -12.388000
C         -27.635000    -11.976000    -12.925000
H         -28.289000    -11.425000    -13.594000
C         -27.877000    -13.335000    -12.689000
H         -28.657000    -13.860000    -13.233000
C         -27.232000    -13.917000    -11.602000
H         -27.446000    -14.933000    -11.285000
C         -26.285000    -13.218000    -10.879000
H         -25.888000    -13.745000    -10.017000
C         -29.171000     -7.516000     -9.221000
C         -30.041000     -9.692000     -8.395000
C         -29.741000     -8.658000     -3.973000
C         -24.724000     -6.414000     -7.235000
C         -26.671000    -10.255000     -3.479000
C         -29.246000     -8.920000     -9.291000
C         -24.647000     -7.445000     -4.540000
C         -30.430000     -7.342000     -5.875000
C         -26.986000    -11.960000     -7.045000
C         -24.070000     -7.623000     -6.900000
C         -25.664000    -10.950000     -8.757000
C         -25.676000    -11.672000     -6.570000
C         -24.085000     -9.519000     -5.717000
C         -25.366000     -8.193000     -3.602000
C         -28.207000    -10.885000     -8.873000
C         -27.744000     -8.038000     -2.988000
C         -25.620000     -9.730000     -9.614000
C         -24.834000     -8.506000     -9.020000
C         -27.830000     -9.450000     -3.141000
C         -27.738000     -5.193000     -5.844000
C         -28.884000     -6.330000     -4.310000
C         -29.659000     -6.248000     -5.488000
C         -30.508000     -7.701000     -7.212000
C         -25.596000     -7.337000     -9.238000
C         -27.030000    -11.485000     -8.366000
C         -30.735000     -9.138000     -7.331000
C         -23.981000     -8.107000     -5.589000
C         -29.360000    -10.936000     -8.127000
C         -25.616000    -11.354000     -5.182000
C         -26.609000     -5.472000     -8.004000
C         -30.519000     -8.556000     -5.172000
C         -24.905000    -10.941000     -7.478000
C         -29.034000     -5.854000     -7.796000
C         -24.769000    -10.263000     -4.731000
C         -28.134000    -12.030000     -6.290000
C         -26.539000     -6.240000     -4.050000
C         -25.364000     -6.280000     -4.832000
C         -28.032000    -11.661000     -4.923000
C         -25.461000     -6.219000     -8.371000
C         -24.106000     -8.674000     -7.844000
C         -26.571000     -5.168000     -6.643000
C         -26.895000     -9.066000     -9.932000
C         -29.943000    -10.805000     -5.749000
C         -24.080000     -9.869000     -7.109000
C         -26.769000    -11.357000     -4.346000
C         -27.856000     -5.786000     -8.552000
C         -29.073000     -9.832000     -3.688000
C         -29.855000     -6.947000     -8.165000
C         -28.950000     -7.543000     -3.497000
C         -29.333000    -11.507000     -6.812000
C         -29.142000    -10.929000     -4.618000
C         -28.124000     -9.663000     -9.626000
C         -26.873000     -7.690000     -9.694000
C         -27.733000     -5.694000     -4.559000
C         -30.648000     -9.615000     -6.014000
C         -25.455000     -9.578000     -3.718000
C         -25.414000     -5.753000     -6.162000
C         -26.494000     -7.430000     -3.251000
C         -27.967000     -6.877000     -9.415000
C         -28.973000     -5.467000     -6.422000
O         -35.129000    -21.309000     -6.111000
C         -36.390000    -21.698000     -5.661000
H         -36.784000    -22.559000     -6.215000
H         -37.025000    -20.806000     -5.736000
H         -36.325000    -22.015000     -4.613000
O         -34.401000    -23.511000     -5.898000
C         -34.240000    -22.306000     -6.216000
C         -32.929000    -21.808000     -6.676000
H         -32.216000    -22.641000     -6.716000
H         -32.486000    -21.173000     -5.899000
C         -33.080000    -21.048000     -8.026000
H         -33.380000    -21.767000     -8.799000
H         -33.832000    -20.254000     -7.942000
C         -31.672000    -20.392000     -8.350000
H         -30.984000    -21.247000     -8.326000
H         -31.658000    -19.995000     -9.372000
C         -31.258000    -19.136000     -7.523000
C         -32.400000    -18.248000     -7.019000
C         -32.803000    -18.360000     -5.658000
H         -32.344000    -19.118000     -5.031000
C         -33.731000    -17.514000     -5.120000
H         -34.026000    -17.551000     -4.076000
C         -34.328000    -16.529000     -5.903000
H         -35.204000    -15.990000     -5.555000
C         -33.941000    -16.494000     -7.270000
H         -34.559000    -15.891000     -7.928000
C         -33.031000    -17.319000     -7.822000
H         -32.828000    -17.271000     -8.888000
C         -27.219000    -15.400000     -7.398000
C         -27.648000    -15.807000     -4.985000
C         -23.874000    -18.082000     -4.099000
C         -26.301000    -19.721000     -9.805000
C         -25.428000    -21.241000     -4.377000
C         -28.130000    -15.664000     -6.314000
C         -25.069000    -21.525000     -7.995000
C         -24.278000    -16.160000     -5.401000
C         -29.115000    -19.553000     -4.444000
C         -27.033000    -20.638000     -9.109000
C         -30.073000    -19.384000     -6.597000
C         -28.787000    -20.701000     -5.092000
C         -27.372000    -21.769000     -7.153000
C         -24.610000    -21.680000     -6.629000
C         -29.433000    -17.246000     -5.320000
C         -23.466000    -20.073000     -5.179000
C         -29.886000    -18.634000     -7.836000
C         -29.006000    -19.203000     -8.861000
C         -24.398000    -20.323000     -4.155000
C         -23.639000    -17.771000     -8.560000
C         -23.028000    -17.943000     -6.362000
C         -23.561000    -16.696000     -6.520000
C         -25.391000    -15.378000     -5.683000
C         -28.183000    -18.195000     -9.487000
C         -29.759000    -18.632000     -5.292000
C         -26.292000    -15.654000     -4.662000
C         -26.490000    -21.558000     -8.206000
C         -28.494000    -16.762000     -4.324000
C         -27.594000    -21.454000     -4.783000
C         -25.758000    -17.586000     -9.680000
C         -24.466000    -16.831000     -4.220000
C         -29.301000    -20.619000     -6.405000
C         -25.126000    -15.854000     -8.113000
C         -26.879000    -21.988000     -5.845000
C         -28.191000    -19.063000     -3.513000
C         -23.369000    -19.992000     -7.600000
C         -24.306000    -20.479000     -8.546000
C         -26.981000    -19.712000     -3.271000
C         -26.828000    -18.479000     -9.941000
C         -28.342000    -20.391000     -8.679000
C         -24.538000    -18.298000     -9.572000
C         -29.420000    -17.204000     -7.787000
C         -26.459000    -17.500000     -3.150000
C         -28.480000    -21.088000     -7.449000
C         -26.702000    -20.945000     -3.890000
C         -26.031000    -16.344000     -9.063000
C         -24.648000    -19.117000     -3.435000
C         -25.844000    -15.276000     -7.052000
C         -23.219000    -18.661000     -5.177000
C         -27.844000    -17.720000     -3.464000
C         -25.960000    -18.798000     -3.065000
C         -29.153000    -16.561000     -6.545000
C         -28.395000    -17.014000     -8.816000
C         -23.082000    -18.618000     -7.573000
C         -25.719000    -16.505000     -3.747000
C         -25.512000    -21.934000     -5.563000
C         -24.900000    -19.622000     -9.513000
C         -23.596000    -20.739000     -6.425000
C         -27.325000    -16.104000     -8.571000
C         -23.941000    -16.574000     -7.877000
$end

--------------------------------------------------------------
 ----------------------------------------------------------------
             Standard Nuclear Orientation (Angstroms)
    I     Atom           X                Y                Z
 ----------------------------------------------------------------
    1      O      -7.0177629736     5.8711852338    -3.4616053749
    2      C      -7.7839620351     6.2054939136    -4.6208041088
    3      H      -8.7023001686     5.6049418502    -4.6406608864
    4      H      -7.1896629806     5.9440148236    -5.5045163466
    5      H      -8.1180880120     7.2505842157    -4.5829083038
    6      O      -5.6880582644     7.7997553990    -3.5048315732
    7      C      -6.0127252417     6.7157937312    -3.0252229238
    8      C      -5.2565937952     6.1697816687    -1.8542207618
    9      H      -5.8494122173     6.2321138808    -0.9328212753
   10      H      -4.3732346460     6.7860459146    -1.6466924681
   11      C      -4.8619036070     4.7171568197    -2.2402954998
   12      H      -5.8269238668     4.1953367365    -2.2461860909
   13      H      -4.5682888625     4.7418967760    -3.2967231198
   14      C      -3.9556540826     4.0604830206    -1.2128222295
   15      H      -3.0180033896     4.6305022575    -1.1809749746
   16      H      -4.3965235254     4.1633796580    -0.2131920898
   17      C      -3.6360751643     2.6313546042    -1.5939761151
   18      C      -2.7768459994     2.4549668675    -2.8398423232
   19      C      -3.3649649885     2.2877548164    -4.0537534339
   20      H      -4.4441181607     2.3632557480    -4.1544611315
   21      C      -2.5528684656     2.0224176393    -5.1885002867
   22      H      -3.0365085301     1.6568555470    -6.0892414508
   23      C      -1.1552180661     2.0074129945    -5.1019599985
   24      H      -0.5517601011     1.7151091717    -5.9565698273
   25      C      -0.5937954224     2.1752008795    -3.8398309081
   26      H       0.4729224090     2.0695078026    -3.6681246425
   27      C      -1.3796499250     2.4868972399    -2.7473946035
   28      H      -0.8484082278     2.5368347187    -1.8020531269
   29      C      -6.1968983405    -2.0275718740    -2.6806838635
   30      C      -3.8163124876    -2.6745623859    -2.3834192103
   31      C      -4.3978255152    -4.7329347577     1.6338168766
   32      C      -7.9160023708     0.5859463932     1.2114380000
   33      C      -3.3822272012    -1.9901134484     3.5481931014
   34      C      -4.8213078414    -1.7458223508    -2.7812273121
   35      C      -6.6304522623    -0.3888003023     3.6050012012
   36      C      -5.7555993360    -4.7176794499    -0.3612767370
   37      C      -2.0498430373    -0.1984909463     0.2713886748
   38      C      -6.8275070699     1.2554992954     1.8184790950
   39      C      -3.4785070936     1.5115363265    -0.5850304634
   40      C      -2.5326113264     0.6314197563     1.3215562827
   41      C      -4.8465787454     1.1075251596     2.8424696362
   42      C      -5.6589901635    -1.2778238966     4.0763900419
   43      C      -3.0613828766    -0.6184238080    -1.9168740025
   44      C      -5.2815915828    -3.6310671142     3.4634286480
   45      C      -4.7703157539     1.6812072804    -1.3111345554
   46      C      -6.0508909346     1.7993537493    -0.4083740010
   47      C      -3.9051661731    -3.3178055412     3.2849089617
   48      C      -8.3692997695    -2.9137086117     0.9729965705
   49      C      -6.8704720016    -4.3613597120     1.7585299014
   50      C      -6.9292210950    -4.4858170193     0.3527945341
   51      C      -5.5370390624    -4.0741547746    -1.5698467180
   52      C      -7.0666211296     0.9914052178    -0.9653662284
   53      C      -2.6491645543     0.2807216026    -0.9049493090
   54      C      -4.1051688226    -3.8916747897    -1.7868897356
   55      C      -6.2292353848     0.8214067272     3.0078203551
   56      C      -2.7062770240    -1.9425949042    -1.8220228483
   57      C      -2.7021209065    -0.0423682299     2.5659614627
   58      C      -8.5530294750    -0.8701010379    -0.3716199101
   59      C      -4.4777919301    -4.8545104171     0.2082946104
   60      C      -3.4942976071     1.5544675017     0.9015463338
   61      C      -7.6875111898    -2.9524840950    -1.3637750903
   62      C      -3.8805430643     0.2248569161     3.3728089943
   63      C      -1.6761979200    -1.5184042040     0.3764949000
   64      C      -7.3845161337    -2.5027637032     3.1209191652
   65      C      -7.6591215434    -1.1225800776     3.0050139084
   66      C      -1.9058733634    -2.1578140900     1.6229531578
   67      C      -8.0876781674     0.4489508827    -0.1389136768
   68      C      -5.8994067884     1.9038025264     0.9726861014
   69      C      -8.7075834753    -1.5468198595     0.8384816135
   70      C      -5.2052031146     0.5950995146    -2.2049398499
   71      C      -2.4602667201    -3.5900280450    -0.0227516133
   72      C      -4.6589182709     1.8457966273     1.6259468101
   73      C      -2.3839440895    -1.4196482327     2.7396776305
   74      C      -8.0651345624    -1.6060525595    -1.4552448047
   75      C      -3.3516462966    -4.0356667694     2.2039496639
   76      C      -6.5031940468    -3.2357216168    -2.0862848903
   77      C      -5.5860433598    -4.5306276361     2.4354977248
   78      C      -2.0107285754    -2.4121017091    -0.6593660993
   79      C      -2.3707672718    -3.4118759947     1.3543430443
   80      C      -4.3513059579    -0.4649307225    -2.5330885083
   81      C      -6.5248039843     0.1951813541    -1.9830772580
   82      C      -7.7410136211    -3.4034446851     2.0989033580
   83      C      -3.5126756856    -4.3318612245    -0.5932504327
   84      C      -4.3042489052    -0.9905748938     3.9288565425
   85      C      -8.3089590795    -0.6558300118     1.8180073571
   86      C      -6.1455720376    -2.5758317777     3.8393929526
   87      C      -7.0746152850    -1.0510168918    -2.2665264874
   88      C      -7.9260152373    -3.6341914521    -0.1309908843
   89      O       8.7458918961    -5.5051299769    -2.8712687114
   90      C       9.4190059683    -6.7066695231    -3.0884372284
   91      H      10.2740608347    -6.5900058168    -3.7657434776
   92      H       8.6643574436    -7.4119270696    -3.4594242864
   93      H       9.8303022425    -7.0744956535    -2.1405145983
   94      O      10.7747086427    -4.4937231743    -2.3373062702
   95      C       9.5339099768    -4.4748907326    -2.5351294486
   96      C       8.7437417147    -3.2502506299    -2.3022867194
   97      H       9.4131402117    -2.4373740367    -1.9940736494
   98      H       8.1239466010    -3.3798514335    -1.4065966789
   99      C       7.8841559456    -2.9121706899    -3.5551694991
  100      H       8.5585442363    -2.6437091365    -4.3783455603
  101      H       7.2651640182    -3.7703781096    -3.8438302317
  102      C       6.9360521579    -1.7040450328    -3.1560359318
  103      H       7.6387613500    -0.9377647477    -2.8039573666
  104      H       6.4342943594    -1.2988765354    -4.0428090710
  105      C       5.7219677846    -2.0202958437    -2.2292967241
  106      C       5.1330124515    -3.4302042366    -2.3389048407
  107      C       5.4695345419    -4.3905939984    -1.3430743390
  108      H       6.1881886213    -4.1255346957    -0.5738839334
  109      C       4.8837459120    -5.6245464017    -1.3194703627
  110      H       5.0914608766    -6.3600791930    -0.5486422324
  111      C       3.9534621540    -5.9844188342    -2.2914718863
  112      H       3.6360478229    -7.0160611317    -2.4096383473
  113      C       3.6944505243    -5.0177024918    -3.3004592444
  114      H       3.1543408570    -5.3693108423    -4.1740438798
  115      C       4.2617234116    -3.7971909691    -3.3449799607
  116      H       4.0587165596    -3.1322513358    -4.1795532062
  117      C       1.3102066776     0.5353501390    -0.1576115295
  118      C       2.0546654469    -0.8773095079     1.7456574643
  119      C       3.6376535801     2.4325817276     4.3422832709
  120      C       5.0807498776     3.4157212417    -1.8291019684
  121      C       6.9881884674     1.9411614470     3.3403336332
  122      C       1.8630722623    -0.6941497334     0.3496780416
  123      C       6.7988633910     4.0159206137     0.3471762007
  124      C       1.6995987736     2.2732805467     3.0114674682
  125      C       6.0503444064    -1.5497092578     1.5012925135
  126      C       6.1929611483     2.6673034025    -1.5761477684
  127      C       5.8354061060    -1.3902076406    -0.8460665901
  128      C       7.0348545608    -0.7086688090     1.0904607723
  129      C       7.5756796231     1.7081102123    -0.0308141334
  130      C       7.0106712678     3.7983684877     1.7643813713
  131      C       3.7669783476    -1.9221541580     0.5857198852
  132      C       5.3811125961     3.7332816465     3.5903023002
  133      C       4.9321816848    -0.8137702385    -1.8382840896
  134      C       5.2038617748     0.5470323397    -2.3107163831
  135      C       5.9178264017     2.5110194779     4.0349521422
  136      C       2.7999308948     4.6662740863     0.5526518707
  137      C       3.0900255019     4.1901091769     2.7714851448
  138      C       1.9604182559     3.5319319409     2.3779725073
  139      C       1.1222033811     1.2821678457     2.2278048017
  140      C       3.9929608056     1.3198459178    -2.4581850801
  141      C       5.1844432698    -1.9047997498     0.4495287738
  142      C       1.6779226425     0.0935662910     2.6847735607
  143      C       7.0835044190     2.9100585731    -0.5251194100
  144      C       3.2221953608    -1.6980526161     1.9127402303
  145      C       7.5714224463     0.3315293926     1.9365231847
  146      C       2.9077912128     3.3445918375    -1.4524187477
  147      C       2.5196451751     1.7057261442     3.9526113996
  148      C       6.9106884348    -0.5467692074    -0.3071301164
  149      C       1.2684984207     2.7595867780     0.2284218819
  150      C       7.8369277319     1.5611649235     1.3519477795
  151      C       5.4954968813    -1.3091111433     2.7641835504
  152      C       5.0179746404     4.9390104038     1.5186942319
  153      C       5.5707747389     4.6937193885     0.2363922514
  154      C       5.9200375009    -0.2459965907     3.5600589869
  155      C       3.9572646767     2.7534097297    -2.2004689894
  156      C       6.2531753407     1.2925484576    -1.8326883940
  157      C       3.3771217039     4.4934273882    -0.7691078611
  158      C       3.4531098309    -0.7577422506    -1.5668723810
  159      C       3.6756483070    -0.3503147979     3.9232446941
  160      C       7.0942418304     0.7503618095    -0.8245248167
  161      C       7.0000935757     0.5584957877     3.1507157465
  162      C       1.8175784173     2.5441574419    -1.0419034144
  163      C       4.8695377664     1.6896894851     4.5466590701
  164      C       0.9605710983     1.5180607085     0.8107643780
  165      C       3.9569110505     3.6285794465     3.7145778271
  166      C       4.1243182944    -1.3352549960     2.9778299446
  167      C       4.8535667038     0.3246127163     4.2363119408
  168      C       2.9106179692    -1.2584705514    -0.3493849072
  169      C       2.9563031695     0.5596068175    -1.9710265270
  170      C       3.6258004923     4.8651263021     1.6841218015
  171      C       2.4966968105     0.3408966075     3.7609666551
  172      C       7.5500696971     2.5828046289     2.2602945085
  173      C       4.7445246127     4.4516385747    -0.8954565055
  174      C       5.9190173962     4.3579320335     2.4355545701
  175      C       1.8885031940     1.1545425619    -1.2369422863
  176      C       1.7664457987     3.8200108812     1.0067984812
 ----------------------------------------------------------------
 Molecular Point Group                 C1    NOp =  1
 Largest Abelian Subgroup              C1    NOp =  1
 Nuclear Repulsion Energy = 34608.2554163955 hartrees
 There are      462 alpha and      462 beta electrons
 Requested basis set is 6-31G(d,p)
 There are 676 shells and 2360 basis functions

 Total QAlloc Memory Limit  20000 MB
 Mega-Array Size      4888 MB
 MEM_STATIC part      5000 MB
 A cutoff of  1.0D-08 yielded  37555 shell pairs
 There are    526891 function pairs
 
 -------------------------------------------------------
 OpenMP Integral Computing Module                       
 Release: version 1.0, May 2013, Q-Chem Inc. Pittsburgh 
 -------------------------------------------------------
 Integral Job Info:
 Integral job number is                      11
 Integral operator is                         1
 short-range coefficients                     0
 long-range coefficients              100000000
 Omega coefficients                           0
 if combine SR and LR in K                    0
 Integral screening is                        0
 Integral computing path is                   2
 max size of driver memory is            800000
 size of driver memory is                593474
 size of scratch memory is              2260544
 max col of scratch BK array               1296
 max len of scratch array in speh3          155
 max len of scratch index in speh4           18
 max int batch size is                      520
 min int batch size is                       52
 fixed nKL is                                52
 max L of basis functions is                  2
 order of int derivative is                   0
 number of shells is                        676
 number of basis is                        2360
 number of cartesian basis is              2360
 number of contracted shell pairs         37555
 number of primitive shell pairs         113923
 maxK2 (contraction) of shell pair           36
 max number of K2 of shell pair               1
 max number of CS2 of shell pair           7159
 max number of PS2 of shell pair          34410
 mem total for path MDJ                 1495304
 -------------------------------------------------------
 Smallest overlap matrix eigenvalue = 2.41E-04

 Scale SEOQF with 1.000000e-02/1.000000e-02/1.000000e-02

 Standard Electronic Orientation quadrupole field applied
 Nucleus-field energy     =     0.0000001033 hartrees
 Guess from superposition of atomic densities
 Warning:  Energy on first SCF cycle will be non-variational
 A restricted hybrid HF-DFT SCF calculation will be
 performed using Pulay DIIS extrapolation
 Exchange:     0.2000 Hartree-Fock + 0.0800 Slater + 0.7200 B88
 Correlation:  0.1900 VWN1RPA + 0.8100 LYP
 Using SG-1 standard quadrature grid
 SCF converges when DIIS error is below 1.0E-05
 using 16 threads for integral computing 
 -------------------------------------------------------
 OpenMP BLAS3 based DFT computing Module                
 Release: version 1.0, May 2013, Q-Chem Inc. Pittsburgh 
 -------------------------------------------------------
 ---------------------------------------
  Cycle       Energy         DIIS Error
 ---------------------------------------
    1   -5858.5643742059      1.83E-02
    2   -5803.1176310135      1.30E-03
    3   -5802.3043724968      1.81E-03
    4   -5803.9834207468      6.51E-04
    5   -5804.2199798825      2.75E-04
    6   -5804.2656622145      1.29E-04
    7   -5804.2767964696      4.42E-05
    8   -5804.2777576272      2.51E-05
    9   -5804.2782028316      8.23E-06 Convergence criterion met
 ---------------------------------------
 SCF time:  CPU 8186.00 s  wall 837.46 s
 SCF   energy in the final basis set = -5804.2782028316
 Total energy in the final basis set = -5804.2782028316
 
 --------------------------------------------------------------
 
                    Orbital Energies (a.u.)
 --------------------------------------------------------------
 
 Alpha MOs
 -- Occupied --
-19.207 -19.196 -19.136 -19.134 -10.318 -10.317 -10.249 -10.245
-10.244 -10.242 -10.237 -10.237 -10.236 -10.234 -10.234 -10.234
-10.231 -10.231 -10.231 -10.230 -10.227 -10.227 -10.226 -10.225
-10.225 -10.225 -10.224 -10.224 -10.224 -10.224 -10.223 -10.223
-10.223 -10.222 -10.222 -10.222 -10.222 -10.222 -10.221 -10.221
-10.221 -10.221 -10.221 -10.221 -10.221 -10.220 -10.220 -10.220
-10.220 -10.219 -10.219 -10.219 -10.219 -10.219 -10.219 -10.219
-10.218 -10.218 -10.218 -10.218 -10.218 -10.218 -10.218 -10.218
-10.217 -10.217 -10.217 -10.216 -10.216 -10.216 -10.216 -10.216
-10.216 -10.216 -10.216 -10.216 -10.216 -10.216 -10.216 -10.215
-10.215 -10.215 -10.215 -10.215 -10.215 -10.215 -10.214 -10.214
-10.214 -10.214 -10.214 -10.214 -10.214 -10.213 -10.213 -10.213
-10.213 -10.213 -10.213 -10.213 -10.213 -10.213 -10.213 -10.213
-10.213 -10.213 -10.213 -10.212 -10.212 -10.212 -10.212 -10.212
-10.212 -10.211 -10.211 -10.211 -10.210 -10.210 -10.210 -10.210
-10.209 -10.209 -10.209 -10.209 -10.208 -10.207 -10.207 -10.206
-10.206 -10.206 -10.205 -10.205 -10.205 -10.204 -10.203 -10.202
-10.202 -10.200 -10.199 -10.199 -10.199 -10.198 -10.198 -10.197
-10.195 -10.194 -10.193 -10.192  -1.115  -1.089  -1.010  -1.001
 -0.988  -0.981  -0.973  -0.967  -0.964  -0.963  -0.960  -0.959
 -0.940  -0.937  -0.934  -0.930  -0.925  -0.924  -0.923  -0.921
 -0.919  -0.918  -0.904  -0.895  -0.894  -0.890  -0.888  -0.884
 -0.880  -0.874  -0.866  -0.856  -0.845  -0.840  -0.839  -0.838
 -0.838  -0.836  -0.824  -0.819  -0.810  -0.807  -0.803  -0.799
 -0.798  -0.797  -0.795  -0.794  -0.792  -0.787  -0.787  -0.784
 -0.774  -0.774  -0.770  -0.768  -0.768  -0.767  -0.765  -0.763
 -0.761  -0.750  -0.748  -0.746  -0.739  -0.731  -0.721  -0.717
 -0.717  -0.716  -0.715  -0.713  -0.712  -0.711  -0.710  -0.709
 -0.709  -0.707  -0.705  -0.704  -0.703  -0.703  -0.678  -0.670
 -0.662  -0.661  -0.658  -0.655  -0.651  -0.643  -0.640  -0.631
 -0.629  -0.628  -0.627  -0.626  -0.622  -0.621  -0.620  -0.619
 -0.616  -0.615  -0.614  -0.614  -0.613  -0.613  -0.612  -0.611
 -0.606  -0.605  -0.605  -0.601  -0.578  -0.571  -0.571  -0.567
 -0.564  -0.563  -0.561  -0.559  -0.557  -0.556  -0.554  -0.553
 -0.544  -0.536  -0.535  -0.533  -0.532  -0.530  -0.528  -0.526
 -0.526  -0.522  -0.520  -0.520  -0.519  -0.516  -0.514  -0.512
 -0.512  -0.508  -0.507  -0.500  -0.497  -0.492  -0.490  -0.489
 -0.487  -0.486  -0.484  -0.482  -0.482  -0.480  -0.478  -0.478
 -0.475  -0.474  -0.474  -0.473  -0.471  -0.469  -0.469  -0.467
 -0.467  -0.466  -0.466  -0.465  -0.462  -0.462  -0.459  -0.458
 -0.458  -0.457  -0.454  -0.452  -0.448  -0.447  -0.446  -0.444
 -0.443  -0.442  -0.441  -0.439  -0.439  -0.438  -0.438  -0.437
 -0.433  -0.432  -0.431  -0.429  -0.428  -0.427  -0.426  -0.426
 -0.425  -0.424  -0.423  -0.422  -0.421  -0.421  -0.419  -0.418
 -0.417  -0.417  -0.416  -0.415  -0.415  -0.414  -0.413  -0.412
 -0.411  -0.411  -0.409  -0.407  -0.405  -0.402  -0.401  -0.397
 -0.396  -0.393  -0.392  -0.391  -0.390  -0.389  -0.388  -0.385
 -0.384  -0.378  -0.378  -0.374  -0.373  -0.371  -0.370  -0.367
 -0.367  -0.366  -0.364  -0.363  -0.362  -0.362  -0.361  -0.361
 -0.359  -0.356  -0.356  -0.355  -0.355  -0.354  -0.353  -0.353
 -0.353  -0.351  -0.349  -0.348  -0.348  -0.347  -0.347  -0.345
 -0.344  -0.344  -0.342  -0.342  -0.338  -0.337  -0.336  -0.335
 -0.333  -0.332  -0.331  -0.330  -0.329  -0.328  -0.327  -0.326
 -0.310  -0.308  -0.302  -0.301  -0.293  -0.284  -0.275  -0.272
 -0.271  -0.270  -0.269  -0.268  -0.268  -0.268  -0.266  -0.265
 -0.263  -0.263  -0.262  -0.259  -0.259  -0.258  -0.257  -0.252
 -0.252  -0.249  -0.248  -0.243  -0.227  -0.217  -0.216  -0.212
 -0.210  -0.209  -0.208  -0.205  -0.204  -0.201
 -- Virtual --
 -0.129  -0.123  -0.121  -0.116  -0.113  -0.107  -0.079  -0.078
 -0.075  -0.073  -0.070  -0.060  -0.056  -0.050  -0.028  -0.026
 -0.024  -0.021  -0.019  -0.017  -0.016  -0.015  -0.014  -0.013
 -0.012  -0.011  -0.010  -0.009  -0.006  -0.003   0.000   0.002
  0.004   0.005   0.028   0.034   0.035   0.041   0.046   0.047
  0.048   0.050   0.053   0.055   0.056   0.062   0.065   0.065
  0.068   0.070   0.071   0.082   0.082   0.084   0.087   0.091
  0.093   0.095   0.097   0.098   0.098   0.099   0.103   0.105
  0.108   0.111   0.112   0.113   0.115   0.116   0.118   0.121
  0.121   0.124   0.126   0.127   0.131   0.131   0.133   0.136
  0.140   0.144   0.145   0.147   0.148   0.150   0.151   0.154
  0.156   0.157   0.158   0.163   0.164   0.165   0.166   0.169
  0.169   0.172   0.172   0.174   0.175   0.176   0.179   0.180
  0.182   0.183   0.184   0.186   0.188   0.191   0.192   0.193
  0.194   0.195   0.196   0.198   0.198   0.200   0.202   0.204
  0.205   0.208   0.210   0.212   0.215   0.216   0.217   0.219
  0.219   0.222   0.223   0.223   0.224   0.225   0.228   0.228
  0.229   0.230   0.231   0.233   0.233   0.234   0.236   0.238
  0.239   0.239   0.242   0.243   0.247   0.252   0.253   0.255
  0.258   0.260   0.268   0.269   0.272   0.276   0.277   0.280
  0.281   0.285   0.287   0.289   0.291   0.292   0.301   0.302
  0.306   0.307   0.310   0.310   0.314   0.315   0.315   0.317
  0.320   0.322   0.323   0.325   0.327   0.327   0.329   0.332
  0.334   0.337   0.339   0.342   0.345   0.345   0.349   0.352
  0.355   0.355   0.360   0.368   0.375   0.377   0.382   0.387
  0.394   0.395   0.396   0.401   0.402   0.406   0.407   0.408
  0.409   0.409   0.412   0.414   0.415   0.416   0.418   0.421
  0.425   0.428   0.431   0.434   0.436   0.441   0.443   0.446
  0.447   0.448   0.450   0.455   0.457   0.459   0.460   0.463
  0.464   0.465   0.466   0.469   0.472   0.473   0.475   0.475
  0.477   0.478   0.480   0.481   0.484   0.485   0.485   0.487
  0.488   0.488   0.489   0.492   0.492   0.493   0.495   0.496
  0.498   0.499   0.500   0.501   0.501   0.501   0.502   0.504
  0.504   0.505   0.507   0.508   0.509   0.510   0.511   0.511
  0.512   0.513   0.514   0.516   0.517   0.518   0.518   0.519
  0.519   0.520   0.521   0.521   0.522   0.523   0.524   0.524
  0.525   0.525   0.526   0.527   0.528   0.529   0.530   0.530
  0.532   0.532   0.532   0.533   0.534   0.535   0.536   0.536
  0.537   0.538   0.539   0.539   0.541   0.541   0.542   0.543
  0.544   0.545   0.546   0.547   0.547   0.548   0.548   0.548
  0.549   0.550   0.552   0.552   0.553   0.554   0.554   0.556
  0.557   0.558   0.559   0.560   0.561   0.561   0.563   0.563
  0.564   0.564   0.565   0.567   0.567   0.568   0.569   0.569
  0.570   0.572   0.572   0.573   0.574   0.575   0.576   0.577
  0.578   0.578   0.580   0.580   0.581   0.581   0.582   0.583
  0.583   0.585   0.586   0.587   0.588   0.589   0.589   0.590
  0.591   0.591   0.592   0.593   0.594   0.596   0.597   0.597
  0.599   0.600   0.600   0.602   0.603   0.604   0.605   0.606
  0.607   0.609   0.609   0.610   0.612   0.613   0.613   0.614
  0.616   0.617   0.618   0.619   0.620   0.622   0.623   0.624
  0.626   0.626   0.627   0.628   0.629   0.630   0.630   0.632
  0.632   0.634   0.634   0.635   0.636   0.637   0.639   0.639
  0.640   0.642   0.642   0.643   0.644   0.644   0.646   0.648
  0.648   0.649   0.650   0.651   0.652   0.653   0.653   0.654
  0.655   0.656   0.657   0.659   0.659   0.660   0.662   0.663
  0.664   0.664   0.665   0.666   0.667   0.668   0.669   0.670
  0.670   0.671   0.671   0.672   0.673   0.675   0.675   0.676
  0.679   0.679   0.681   0.682   0.682   0.683   0.684   0.685
  0.687   0.688   0.688   0.689   0.692   0.692   0.694   0.694
  0.695   0.696   0.698   0.699   0.699   0.700   0.702   0.703
  0.705   0.707   0.707   0.708   0.711   0.712   0.714   0.714
  0.715   0.716   0.718   0.719   0.720   0.721   0.722   0.722
  0.723   0.725   0.727   0.728   0.730   0.731   0.731   0.732
  0.734   0.736   0.737   0.739   0.740   0.741   0.743   0.743
  0.744   0.745   0.747   0.748   0.750   0.751   0.753   0.755
  0.757   0.757   0.760   0.761   0.762   0.762   0.763   0.765
  0.766   0.767   0.767   0.769   0.770   0.771   0.773   0.774
  0.775   0.777   0.778   0.779   0.781   0.782   0.783   0.784
  0.785   0.787   0.788   0.791   0.792   0.793   0.793   0.794
  0.796   0.797   0.798   0.799   0.800   0.800   0.801   0.802
  0.803   0.803   0.805   0.806   0.807   0.807   0.808   0.809
  0.811   0.811   0.812   0.812   0.813   0.813   0.815   0.816
  0.816   0.817   0.818   0.819   0.820   0.820   0.822   0.823
  0.824   0.825   0.825   0.826   0.828   0.829   0.831   0.832
  0.833   0.834   0.836   0.837   0.839   0.842   0.843   0.846
  0.849   0.851   0.855   0.856   0.859   0.860   0.863   0.866
  0.867   0.870   0.874   0.876   0.881   0.885   0.885   0.888
  0.892   0.895   0.899   0.902   0.906   0.907   0.908   0.909
  0.910   0.911   0.918   0.919   0.920   0.921   0.923   0.927
  0.927   0.928   0.929   0.931   0.933   0.934   0.936   0.937
  0.938   0.938   0.939   0.941   0.945   0.946   0.947   0.948
  0.952   0.954   0.956   0.960   0.966   0.969   0.970   0.974
  0.976   0.978   0.981   0.981   0.982   0.985   0.988   0.991
  0.995   0.997   0.999   1.000   1.001   1.003   1.005   1.007
  1.008   1.009   1.011   1.012   1.015   1.016   1.017   1.020
  1.021   1.023   1.025   1.029   1.029   1.031   1.032   1.035
  1.035   1.039   1.039   1.040   1.041   1.044   1.045   1.046
  1.049   1.050   1.051   1.053   1.054   1.056   1.057   1.058
  1.061   1.062   1.064   1.064   1.066   1.067   1.070   1.070
  1.071   1.072   1.074   1.075   1.077   1.078   1.078   1.079
  1.082   1.083   1.085   1.087   1.089   1.089   1.091   1.094
  1.096   1.096   1.097   1.099   1.105   1.106   1.107   1.107
  1.111   1.111   1.114   1.117   1.118   1.120   1.124   1.126
  1.128   1.130   1.131   1.134   1.136   1.139   1.143   1.144
  1.144   1.147   1.149   1.150   1.152   1.152   1.155   1.159
  1.160   1.161   1.162   1.164   1.167   1.168   1.169   1.171
  1.172   1.173   1.174   1.175   1.178   1.180   1.180   1.182
  1.183   1.184   1.188   1.189   1.192   1.194   1.196   1.197
  1.198   1.201   1.205   1.206   1.209   1.211   1.215   1.215
  1.218   1.225   1.228   1.232   1.236   1.238   1.239   1.241
  1.245   1.249   1.250   1.251   1.254   1.255   1.257   1.258
  1.260   1.262   1.264   1.265   1.267   1.269   1.269   1.271
  1.275   1.277   1.279   1.279   1.282   1.283   1.285   1.287
  1.289   1.292   1.294   1.298   1.301   1.303   1.304   1.308
  1.310   1.315   1.316   1.319   1.320   1.323   1.326   1.328
  1.331   1.331   1.333   1.334   1.336   1.340   1.340   1.343
  1.346   1.348   1.351   1.353   1.354   1.357   1.358   1.360
  1.363   1.366   1.369   1.370   1.373   1.374   1.377   1.378
  1.382   1.383   1.386   1.390   1.393   1.395   1.397   1.400
  1.405   1.407   1.411   1.412   1.418   1.424   1.426   1.428
  1.432   1.433   1.437   1.439   1.441   1.442   1.444   1.448
  1.450   1.452   1.455   1.455   1.459   1.460   1.461   1.464
  1.466   1.469   1.469   1.471   1.473   1.474   1.476   1.478
  1.479   1.481   1.482   1.483   1.487   1.489   1.489   1.492
  1.497   1.499   1.500   1.503   1.505   1.508   1.511   1.514
  1.515   1.519   1.525   1.529   1.530   1.534   1.536   1.538
  1.542   1.544   1.545   1.546   1.549   1.551   1.552   1.555
  1.557   1.558   1.560   1.562   1.565   1.570   1.571   1.575
  1.576   1.577   1.580   1.581   1.583   1.585   1.587   1.589
  1.591   1.594   1.598   1.598   1.604   1.608   1.609   1.612
  1.615   1.624   1.627   1.627   1.630   1.633   1.641   1.644
  1.649   1.650   1.653   1.659   1.663   1.666   1.667   1.670
  1.671   1.675   1.679   1.682   1.684   1.689   1.691   1.696
  1.696   1.698   1.701   1.702   1.706   1.708   1.711   1.715
  1.716   1.719   1.722   1.724   1.725   1.727   1.728   1.731
  1.731   1.735   1.735   1.737   1.739   1.741   1.744   1.746
  1.748   1.749   1.751   1.753   1.753   1.755   1.757   1.758
  1.759   1.760   1.761   1.763   1.764   1.764   1.766   1.767
  1.767   1.771   1.771   1.773   1.774   1.775   1.775   1.776
  1.778   1.779   1.780   1.782   1.783   1.784   1.786   1.787
  1.788   1.789   1.789   1.791   1.794   1.795   1.795   1.796
  1.799   1.801   1.801   1.802   1.804   1.806   1.808   1.808
  1.809   1.811   1.811   1.813   1.815   1.815   1.817   1.821
  1.823   1.827   1.830   1.832   1.832   1.836   1.840   1.841
  1.843   1.844   1.847   1.851   1.851   1.852   1.853   1.854
  1.855   1.858   1.859   1.860   1.862   1.867   1.868   1.870
  1.871   1.873   1.874   1.875   1.879   1.880   1.881   1.884
  1.887   1.888   1.888   1.889   1.892   1.894   1.901   1.902
  1.906   1.907   1.911   1.913   1.919   1.921   1.922   1.922
  1.924   1.925   1.929   1.930   1.932   1.933   1.933   1.935
  1.938   1.940   1.943   1.943   1.947   1.947   1.952   1.953
  1.956   1.959   1.961   1.963   1.967   1.967   1.969   1.971
  1.973   1.974   1.975   1.978   1.979   1.980   1.982   1.984
  1.986   1.987   1.989   1.991   1.992   1.993   1.993   1.994
  1.996   1.997   1.999   2.000   2.003   2.005   2.007   2.007
  2.008   2.011   2.012   2.013   2.014   2.015   2.016   2.017
  2.018   2.019   2.020   2.021   2.022   2.023   2.024   2.026
  2.027   2.027   2.029   2.029   2.032   2.034   2.034   2.035
  2.036   2.037   2.040   2.041   2.042   2.042   2.044   2.045
  2.046   2.047   2.048   2.048   2.049   2.051   2.053   2.053
  2.053   2.055   2.056   2.058   2.059   2.060   2.062   2.064
  2.065   2.066   2.067   2.068   2.069   2.072   2.074   2.075
  2.076   2.077   2.079   2.080   2.081   2.085   2.085   2.087
  2.089   2.091   2.093   2.095   2.096   2.097   2.098   2.100
  2.101   2.103   2.105   2.107   2.108   2.110   2.113   2.115
  2.116   2.120   2.124   2.127   2.127   2.130   2.134   2.138
  2.142   2.145   2.146   2.149   2.152   2.156   2.158   2.163
  2.169   2.171   2.180   2.190   2.193   2.194   2.195   2.199
  2.201   2.207   2.207   2.212   2.214   2.219   2.221   2.222
  2.224   2.226   2.228   2.233   2.234   2.238   2.239   2.243
  2.244   2.245   2.250   2.254   2.254   2.256   2.261   2.262
  2.266   2.267   2.270   2.272   2.273   2.274   2.277   2.281
  2.285   2.287   2.288   2.290   2.292   2.292   2.296   2.299
  2.300   2.301   2.301   2.305   2.306   2.309   2.311   2.314
  2.315   2.320   2.324   2.327   2.328   2.333   2.336   2.338
  2.341   2.344   2.346   2.348   2.351   2.353   2.355   2.355
  2.358   2.359   2.361   2.362   2.364   2.364   2.367   2.367
  2.370   2.372   2.372   2.373   2.376   2.378   2.379   2.382
  2.383   2.385   2.386   2.389   2.390   2.392   2.396   2.396
  2.397   2.397   2.400   2.401   2.402   2.404   2.405   2.406
  2.410   2.412   2.413   2.415   2.419   2.420   2.422   2.423
  2.425   2.427   2.431   2.432   2.438   2.440   2.442   2.443
  2.446   2.447   2.451   2.453   2.454   2.456   2.458   2.461
  2.462   2.465   2.468   2.468   2.471   2.473   2.475   2.476
  2.477   2.481   2.482   2.485   2.487   2.489   2.490   2.493
  2.494   2.495   2.497   2.497   2.499   2.500   2.502   2.502
  2.505   2.506   2.507   2.511   2.513   2.515   2.518   2.520
  2.522   2.524   2.527   2.529   2.532   2.535   2.539   2.541
  2.543   2.544   2.545   2.546   2.555   2.558   2.565   2.566
  2.568   2.572   2.575   2.579   2.580   2.583   2.584   2.586
  2.588   2.593   2.594   2.596   2.597   2.600   2.602   2.603
  2.607   2.609   2.610   2.613   2.613   2.615   2.617   2.620
  2.621   2.622   2.623   2.623   2.626   2.627   2.631   2.632
  2.633   2.635   2.639   2.640   2.641   2.643   2.643   2.645
  2.646   2.649   2.650   2.651   2.652   2.654   2.655   2.656
  2.658   2.659   2.661   2.663   2.665   2.667   2.669   2.670
  2.674   2.675   2.677   2.678   2.680   2.682   2.683   2.685
  2.687   2.688   2.690   2.693   2.695   2.701   2.702   2.705
  2.708   2.709   2.711   2.714   2.717   2.719   2.721   2.726
  2.728   2.730   2.734   2.735   2.736   2.740   2.742   2.743
  2.744   2.748   2.749   2.750   2.753   2.754   2.757   2.760
  2.761   2.763   2.765   2.769   2.770   2.771   2.775   2.775
  2.776   2.780   2.781   2.783   2.785   2.786   2.789   2.795
  2.801   2.802   2.806   2.812   2.816   2.818   2.823   2.825
  2.826   2.829   2.832   2.834   2.836   2.838   2.841   2.843
  2.845   2.848   2.850   2.851   2.854   2.856   2.858   2.860
  2.862   2.865   2.867   2.867   2.869   2.871   2.873   2.874
  2.878   2.879   2.881   2.883   2.885   2.887   2.890   2.891
  2.892   2.892   2.896   2.896   2.899   2.901   2.902   2.902
  2.904   2.906   2.906   2.911   2.912   2.914   2.916   2.916
  2.918   2.919   2.922   2.922   2.925   2.926   2.929   2.932
  2.934   2.934   2.937   2.937   2.943   2.944   2.947   2.950
  2.953   2.954   2.958   2.961   2.965   2.969   2.970   2.974
  2.977   2.979   2.983   2.986   2.987   2.993   2.996   3.000
  3.002   3.006   3.008   3.011   3.016   3.018   3.019   3.022
  3.024   3.026   3.030   3.032   3.034   3.035   3.043   3.043
  3.044   3.048   3.049   3.052   3.058   3.061   3.063   3.064
  3.067   3.072   3.077   3.079   3.083   3.089   3.096   3.103
  3.105   3.114   3.127   3.134   3.136   3.143   3.146   3.150
  3.152   3.153   3.165   3.166   3.176   3.177   3.179   3.181
  3.184   3.189   3.207   3.209   3.222   3.226   3.240   3.243
  3.245   3.249   3.257   3.259   3.262   3.267   3.276   3.278
  3.283   3.290   3.306   3.309   3.311   3.318   3.321   3.322
  3.333   3.334   3.339   3.347   3.348   3.353   3.363   3.376
  3.388   3.390   3.405   3.416   3.417   3.421   3.421   3.436
  3.442   3.460   3.463   3.468   3.474   3.482   3.483   3.489
  3.502   3.503   3.507   3.513   3.522   3.534   3.536   3.537
  3.543   3.544   3.558   3.561   3.573   3.579   3.595   3.598
  3.606   3.609   3.676   3.679   3.881   3.886   3.995   4.009
  4.074   4.075   4.075   4.081   4.085   4.090   4.091   4.095
  4.096   4.097   4.101   4.103   4.104   4.112   4.114   4.120
  4.125   4.132   4.135   4.136   4.139   4.142   4.146   4.147
  4.149   4.154   4.157   4.162   4.166   4.169   4.172   4.178
  4.179   4.181   4.188   4.191   4.207   4.208   4.232   4.239
  4.244   4.245   4.250   4.252   4.252   4.260   4.262   4.263
  4.269   4.274   4.275   4.279   4.284   4.286   4.293   4.299
  4.300   4.312   4.330   4.349   4.374   4.376   4.383   4.390
  4.390   4.393   4.398   4.401   4.404   4.410   4.411   4.411
  4.415   4.417   4.421   4.428   4.436   4.443   4.452   4.463
  4.481   4.497   4.516   4.522   4.527   4.529   4.543   4.548
  4.550   4.555   4.609   4.616   4.622   4.624   4.633   4.635
  4.637   4.640   4.675   4.680   4.688   4.689   4.691   4.692
  4.700   4.702   4.703   4.708   4.743   4.761   4.788   4.838
  4.849   4.851   4.860   4.862   4.865   4.873   4.882   4.895
  4.899   4.902   4.952   4.957   4.964   4.968   4.975   4.981
  4.984   4.989   4.994   5.003   5.159   5.166   5.179   5.183
  5.188   5.189   5.202   5.206   5.305   5.320   5.332   5.339
  5.343   5.348
 --------------------------------------------------------------
 
          Ground-State Mulliken Net Atomic Charges

     Atom                 Charge (a.u.)
  ----------------------------------------
      1 O                    -0.470790
      2 C                    -0.083083
      3 H                     0.124055
      4 H                     0.125750
      5 H                     0.134667
      6 O                    -0.471241
      7 C                     0.590880
      8 C                    -0.242828
      9 H                     0.125893
     10 H                     0.133465
     11 C                    -0.199891
     12 H                     0.127031
     13 H                     0.117186
     14 C                    -0.180247
     15 H                     0.107637
     16 H                     0.106978
     17 C                     0.020356
     18 C                     0.083104
     19 C                    -0.103263
     20 H                     0.095803
     21 C                    -0.106051
     22 H                     0.089787
     23 C                    -0.078110
     24 H                     0.090603
     25 C                    -0.087743
     26 H                     0.088731
     27 C                    -0.096088
     28 H                     0.088518
     29 C                    -0.037320
     30 C                    -0.009387
     31 C                    -0.007583
     32 C                     0.007917
     33 C                     0.001343
     34 C                     0.024826
     35 C                    -0.016001
     36 C                     0.019884
     37 C                     0.027814
     38 C                    -0.000133
     39 C                    -0.115876
     40 C                     0.011698
     41 C                    -0.011971
     42 C                     0.022331
     43 C                     0.010196
     44 C                     0.003396
     45 C                    -0.068673
     46 C                     0.016218
     47 C                    -0.013330
     48 C                     0.013548
     49 C                    -0.007459
     50 C                    -0.002854
     51 C                    -0.001583
     52 C                    -0.006263
     53 C                     0.025956
     54 C                    -0.033461
     55 C                     0.005795
     56 C                    -0.011273
     57 C                    -0.035178
     58 C                    -0.006159
     59 C                     0.001660
     60 C                     0.058217
     61 C                    -0.019395
     62 C                    -0.016280
     63 C                    -0.010549
     64 C                    -0.015763
     65 C                     0.007843
     66 C                    -0.005209
     67 C                    -0.019475
     68 C                     0.006592
     69 C                     0.008586
     70 C                     0.028018
     71 C                     0.001395
     72 C                    -0.020657
     73 C                     0.006174
     74 C                     0.007124
     75 C                    -0.007556
     76 C                     0.016612
     77 C                    -0.011540
     78 C                    -0.012018
     79 C                     0.014387
     80 C                     0.003825
     81 C                     0.016559
     82 C                     0.031042
     83 C                     0.020291
     84 C                     0.013079
     85 C                    -0.022060
     86 C                    -0.015873
     87 C                     0.010387
     88 C                    -0.031708
     89 O                    -0.424865
     90 C                    -0.089195
     91 H                     0.132612
     92 H                     0.117411
     93 H                     0.124992
     94 O                    -0.503522
     95 C                     0.596013
     96 C                    -0.241882
     97 H                     0.131935
     98 H                     0.126468
     99 C                    -0.207150
    100 H                     0.111025
    101 H                     0.132745
    102 C                    -0.189167
    103 H                     0.115436
    104 H                     0.100559
    105 C                     0.003942
    106 C                     0.070741
    107 C                    -0.083614
    108 H                     0.091603
    109 C                    -0.092709
    110 H                     0.091466
    111 C                    -0.082612
    112 H                     0.096527
    113 C                    -0.099829
    114 H                     0.085029
    115 C                    -0.082508
    116 H                     0.091863
    117 C                    -0.023756
    118 C                     0.016199
    119 C                    -0.028029
    120 C                    -0.009399
    121 C                     0.019326
    122 C                     0.003258
    123 C                    -0.034172
    124 C                    -0.004282
    125 C                     0.012775
    126 C                     0.022233
    127 C                    -0.091757
    128 C                     0.015974
    129 C                     0.037403
    130 C                    -0.005720
    131 C                    -0.009444
    132 C                    -0.006149
    133 C                    -0.053704
    134 C                     0.034178
    135 C                    -0.007228
    136 C                    -0.005272
    137 C                     0.004978
    138 C                     0.003191
    139 C                    -0.023172
    140 C                    -0.015028
    141 C                     0.018471
    142 C                     0.011291
    143 C                    -0.024780
    144 C                    -0.043805
    145 C                    -0.010961
    146 C                     0.013100
    147 C                     0.038744
    148 C                     0.017595
    149 C                    -0.021386
    150 C                    -0.006400
    151 C                    -0.002284
    152 C                     0.007400
    153 C                     0.018048
    154 C                     0.011567
    155 C                     0.011492
    156 C                     0.001475
    157 C                    -0.028601
    158 C                     0.007613
    159 C                    -0.000193
    160 C                    -0.013813
    161 C                    -0.006684
    162 C                    -0.029065
    163 C                    -0.034341
    164 C                     0.012045
    165 C                     0.025715
    166 C                    -0.014338
    167 C                     0.027597
    168 C                     0.023868
    169 C                     0.000306
    170 C                    -0.004421
    171 C                     0.005046
    172 C                     0.002216
    173 C                     0.002308
    174 C                    -0.000623
    175 C                     0.030836
    176 C                    -0.001995
  ----------------------------------------
  Sum of atomic charges =     0.000000

 -----------------------------------------------------------------
                    Cartesian Multipole Moments
 -----------------------------------------------------------------
    Charge (ESU x 10^10)
                 0.0000
    Dipole Moment (Debye)
         X       0.0698      Y      -2.8212      Z      -3.2230
       Tot       4.2839
    Quadrupole Moments (Debye-Ang)
        XX    -835.0718     XY     -16.0422     YY    -813.7993
        XZ       3.4613     YZ      16.7698     ZZ    -790.9514
    Octopole Moments (Debye-Ang^2)
       XXX    -583.3416    XXY     170.6455    XYY     241.5565
       YYY    -484.8471    XXZ    -184.4509    XYZ      55.4144
       YYZ     -15.1610    XZZ      27.2479    YZZ     -47.3791
       ZZZ    -306.4832
    Hexadecapole Moments (Debye-Ang^3)
      XXXX -149776.4950   XXXY   -1376.6609   XXYY  -30837.5670
      XYYY   -2182.9369   YYYY  -47040.4119   XXXZ    1774.6603
      XXYZ    -406.4427   XYYZ    -745.5404   YYYZ    1749.9183
      XXZZ  -27608.8489   XYZZ   -1144.5821   YYZZ  -12562.7061
      XZZZ     101.4420   YZZZ     -17.0816   ZZZZ  -28207.7277
 -----------------------------------------------------------------
Archival summary:
1\1\mn251\SP\ProcedureUnspecified\6-31G**\428\afmv_a\MonOct1506:09:572018MonOct1506:09:572018\0\\#,ProcedureUnspecified,6-31G**,\\0,1\C\C,1,1.3758\C,1,1.40449,2,120.478\C,2,1.40841,1,119.214,3,5.75111,0\C,4,1.4124,2,105.86,1,137.069,0\C,5,1.39145,4,108.592,2,1.13136,0\C,6,1.36417,5,109.542,4,-1.14269,0\C,5,1.40831,4,119.641,2,-143.784,0\C,8,1.35908,5,119.625,4,138.757,0\C,8,1.40342,5,119.657,4,0.112155,0\C,10,1.38587,8,123.612,5,7.26469,0\C,9,1.40568,8,111.662,5,-138.998,0\C,12,1.38655,9,104.778,8,0.121026,0\C,13,1.37954,12,119.866,9,149.23,0\C,14,1.38085,13,122.517,12,-138.604,0\C,15,1.3768,14,110.468,13,136.916,0\C,16,1.39127,15,116.403,14,-138.467,0\C,12,1.39321,9,125.049,8,145.165,0\C,16,1.39548,15,110.198,14,4.59268,0\C,17,1.3966,16,126.693,15,-7.07207,0\C,18,1.39747,12,121.658,9,-141.663,0\C,21,1.39082,18,105.559,12,139.201,0\C,22,1.37922,21,108.593,18,5.10528,0\C,23,1.33839,22,110.049,21,-2.87143,0\C,19,1.39782,16,119.277,15,-143.765,0\C,25,1.39506,19,117.111,16,135.417,0\C,26,1.38284,25,105.661,19,-140.857,0\C,20,1.40017,17,113.37,16,11.2652,0\C,28,1.38678,20,122.311,17,-7.97934,0\C,17,1.40117,16,120.276,15,146.345,0\C,19,1.40137,16,103.228,15,-2.62383,0\C,23,1.40813,22,118.731,21,-144.13,0\C,32,1.412,23,121.091,22,0.0602798,0\C,33,1.39878,32,109.544,23,144.905,0\C,34,1.39868,33,108.778,32,-1.91497,0\C,35,1.3927,34,120.586,33,-138.915,0\C,36,1.40214,35,120.981,34,-3.51867,0\C,35,1.40633,34,106.831,33,3.89406,0\C,34,1.40791,33,118.591,32,-142.847,0\C,39,1.40032,34,120.329,33,1.72002,0\C,37,1.41194,36,118.954,35,6.04712,0\C,36,1.41213,35,121.178,34,138.208,0\C,42,1.40559,36,109.36,35,-145.333,0\C,30,1.41235,17,109.477,16,-150.533,0\C,44,1.39326,30,120.797,17,132.759,0\C,45,1.40318,44,123.676,30,-135.728,0\C,46,1.40213,45,120.157,44,5.74046,0\C,47,1.39759,46,123.608,45,133.694,0\C,38,1.41468,35,121.463,34,-143.654,0\C,49,1.39948,38,122.806,35,135.293,0\C,40,1.41479,39,123.122,34,-5.13861,0\C,51,1.3681,40,124.572,39,143.01,0\C,3,1.41505,1,120.428,2,-9.5909,0\C,53,1.37424,3,119.185,1,8.86855,0\C,49,1.42287,38,117.381,35,2.29447,0\C,55,1.41074,49,111.325,38,142.424,0\C,56,1.38048,55,106.029,49,-4.20674,0\C,43,1.42419,42,107.697,36,1.97572,0\C,20,1.47229,17,113.197,16,154.608,0\C,47,1.48728,46,122.088,45,-9.91871,0\C,59,1.50641,20,125.009,17,157.569,0\C,61,1.51321,59,112.916,20,-138.365,0\H,62,1.09737,61,113.757,59,-47.3423,0\H,62,1.09778,61,108.501,59,-164.477,0\C,62,1.51928,61,111.336,59,77.1231,0\H,65,1.09675,62,120.098,61,55.1656,0\H,65,1.09708,62,108.829,61,-64.3073,0\C,61,1.52367,59,120.338,20,4.1813,0\C,68,1.3592,61,120.034,59,-49.1706,0\H,69,1.08647,68,120.266,61,-5.20857,0\C,68,1.40062,61,120.393,59,131.938,0\H,71,1.08553,68,123.142,61,-6.19277,0\C,71,1.38135,68,120.675,61,-172.47,0\H,73,1.08561,71,117.122,68,170.89,0\C,73,1.39152,71,120.997,68,-9.1737,0\H,75,1.08626,73,121.46,71,176.99,0\C,75,1.40041,73,117.221,71,6.80171,0\H,77,1.08576,75,119.487,73,164.979,0\C,65,1.55401,62,112.8,61,-177.784,0\H,79,1.09689,65,111.57,62,-53.6651,0\H,79,1.0974,65,113.509,62,63.6192,0\C,79,1.49703,65,105.955,62,-173.948,0\O,82,1.22899,79,119.572,65,128.867,0\O,82,1.38344,79,113.017,65,-49.7297,0\C,84,1.42918,82,120.166,79,176.277,0\H,85,1.09659,84,107.897,82,-79.6106,0\H,85,1.09745,84,109.59,82,163.069,0\H,85,1.09786,84,110.967,82,46.9821,0\C,72,2.77225,71,135.197,68,-177.719,0\C,89,1.40058,72,82.6514,71,-174.649,0\C,89,1.40503,72,90.4509,71,77.9368,0\C,91,1.37214,89,108.412,72,78.2451,0\C,90,1.40546,89,109.016,72,-86.4695,0\C,90,1.40653,89,118.627,72,129.648,0\C,94,1.41085,90,122.237,89,0.242941,0\C,89,1.41343,72,131.576,71,-52.5878,0\C,94,1.41447,90,115.56,89,137.889,0\C,97,1.36531,94,107.138,90,-143.026,0\C,98,1.38747,97,109.156,94,1.01692,0\C,98,1.39865,97,120.904,94,144.686,0\C,100,1.38793,98,120.554,97,4.6537,0\C,101,1.38928,100,120.604,98,-6.35493,0\C,102,1.37126,101,117.208,100,5.2498,0\C,102,1.37841,101,124.78,100,-135.447,0\C,104,1.37468,102,107.272,101,142.671,0\C,104,1.37624,102,117.817,101,2.27363,0\C,103,1.38918,102,109.904,101,-148.15,0\C,106,1.39321,104,120.495,102,1.6555,0\C,108,1.38574,106,109.971,104,141.662,0\C,109,1.39423,108,110.99,106,-0.580508,0\C,110,1.38797,109,103.139,108,-0.926159,0\C,108,1.4,106,122.128,104,-7.37733,0\C,110,1.40023,109,121.682,108,-142.193,0\C,113,1.35845,110,116.972,109,-0.759599,0\C,105,1.40231,104,119.264,102,-139.033,0\C,99,1.40391,98,120.058,97,142.368,0\C,109,1.40758,108,119.808,106,-147.854,0\C,117,1.36095,109,119.095,108,140.544,0\C,118,1.38716,117,107.968,109,-138.867,0\C,117,1.39566,109,121.343,108,3.86523,0\C,120,1.37619,117,110.597,109,141.423,0\C,120,1.39746,117,118.558,109,-4.48238,0\C,122,1.40702,120,119.296,117,140.025,0\C,113,1.40786,110,118.256,109,138.042,0\C,116,1.41073,99,122.351,98,0.724649,0\C,125,1.39832,116,110.58,99,-141.806,0\C,114,1.41241,113,107.849,110,145.473,0\C,127,1.40852,114,117.231,113,-138.658,0\C,128,1.33381,127,119.322,114,-10.4697,0\C,129,1.3897,128,106.353,127,152.655,0\C,130,1.39881,129,110.037,128,-5.02222,0\C,131,1.36423,130,124.274,129,-145.036,0\C,132,1.35602,131,117.277,130,139.672,0\C,131,1.39978,130,106.306,129,6.61318,0\C,134,1.37309,131,124.345,130,-149.663,0\C,96,1.41669,89,125.077,72,-96.7182,0\C,136,1.37386,96,105.112,89,-142.565,0\C,116,1.41776,99,118.955,98,-134.703,0\C,138,1.40708,116,110.637,99,143.735,0\C,115,1.42092,105,122.172,104,140.035,0\C,140,1.38004,115,110.035,105,-144.062,0\C,141,1.42383,140,125.349,115,146.072,0\C,124,1.4241,113,122.943,110,-5.32648,0\C,91,1.42584,89,121.463,72,-132.278,0\C,144,1.37475,91,121.092,89,-3.30985,0\C,115,1.43689,105,122.404,104,-4.59762,0\C,135,1.46587,134,122.24,131,141.13,0\C,147,1.46034,135,118.085,134,1.3182,0\C,147,1.49411,135,124.564,134,75.2742,0\C,149,1.5319,147,123.967,135,149.032,0\C,150,1.38058,149,122.645,147,-70.8039,0\H,151,1.08622,150,121.006,149,-8.13269,0\C,151,1.34664,150,118.861,149,173.98,0\H,153,1.08559,151,118.459,150,169.267,0\C,153,1.42116,151,124.279,150,1.45586,0\H,155,1.08582,153,121.048,151,167.144,0\C,155,1.39274,153,116.198,151,1.599,0\H,157,1.08551,155,116.636,153,179.642,0\C,157,1.36614,155,120.514,153,-1.67275,0\H,159,1.08553,157,119.484,155,-179.649,0\C,149,1.55976,147,113.779,135,-2.73092,0\H,161,1.09649,149,101.493,147,62.8672,0\H,161,1.0977,149,116.696,147,-53.1411,0\C,161,1.58675,149,117.398,147,-176.522,0\H,164,1.09681,161,108.95,149,-45.2669,0\H,164,1.09749,161,111.69,149,-166.89,0\C,164,1.55657,161,107.03,149,74.4763,0\H,167,1.09691,164,111.77,161,-50.7616,0\H,167,1.0972,164,113.71,161,63.6943,0\C,167,1.47591,164,110.419,161,-172.877,0\O,170,1.25661,167,121.08,164,-128.09,0\O,170,1.33991,167,111.266,164,56.1684,0\C,172,1.39425,170,114.693,167,179.077,0\H,173,1.09682,172,109.598,170,-68.073,0\H,173,1.09703,172,112.384,170,49.6112,0\H,173,1.0975,172,105.931,170,173.837,0\\\@

 Total job time:  856.55s(wall), 8213.60s(cpu) 
 Mon Oct 15 06:09:57 2018

        *************************************************************
        *                                                           *
        *  Thank you very much for using Q-Chem.  Have a nice day.  *
        *                                                           *
        *************************************************************


