
Running Job 1 of 2 quantum_inputs/C169.qcin
qchem quantum_inputs/C169.qcin_14385.0 /home/Andres/temp/qchem14385/ 1
/usr/local/qchem44/bin/mpi/mpirun_qchem -machinefile /usr/local/qchem44/bin/mpi/machines -np 1 /usr/local/qchem44/exe/qcprog.exe quantum_inputs/C169.qcin_14385.0 /home/Andres/temp/qchem14385/

Process 0 of 1 is on localhost.localdomain - thread support 0
initial socket setup ...start
initial socket setup ...done 
now start server 0 ... 
localhost.localdomain 127.0.0
                  Welcome to Q-Chem
     A Quantum Leap Into The Future Of Chemistry


 Q-Chem 4.4, Q-Chem, Inc., Pleasanton, CA (2016)

 Y. Shao,  Z. Gan,  E. Epifanovsky,  A. T. B. Gilbert,  M. Wormit,  
 J. Kussmann,  A. W. Lange,  A. Behn,  J. Deng,  X. Feng,  D. Ghosh,  
 M. Goldey,  P. R. Horn,  L. D. Jacobson,  I. Kaliman,  R. Z. Khaliullin,  
 T. Kus,  A. Landau,  J. Liu,  E. I. Proynov,  Y. M. Rhee,  R. M. Richard,  
 M. A. Rohrdanz,  R. P. Steele,  E. J. Sundstrom,  H. L. Woodcock III,  
 P. M. Zimmerman,  D. Zuev,  B. Albrecht,  E. Alguire,  B. Austin,  
 S. A. Baeppler,  G. J. O. Beran,  Y. A. Bernard,  E. Berquist,  
 K. Brandhorst,  K. B. Bravaya,  S. T. Brown,  D. Casanova,  C.-M. Chang,  
 Y. Chen,  S. H. Chien,  K. D. Closser,  M. P. Coons,  D. L. Crittenden,  
 S. Dasgupta,  M. Diedenhofen,  R. A. DiStasio Jr.,  H. Do,  A. D. Dutoi,  
 R. G. Edgar,  P.-T. Fang,  S. Fatehi,  Q. Feng,  L. Fusti-Molnar,  
 A. Ghysels,  A. Golubeva-Zadorozhnaya,  J. Gomes,  A. Gunina,  
 M. W. D. Hanson-Heine,  P. H. P. Harbach,  A. W. Hauser,  E. G. Hohenstein,  
 Z. C. Holden,  K. Hui,  T.-C. Jagau,  H. Ji,  B. Kaduk,  K. Khistyaev,  
 Jaehoon Kim,  Jihan Kim,  R. A. King,  P. Klunzinger,  D. Kosenkov,  
 T. Kowalczyk,  C. M. Krauter,  A. Kunitsa,  K. U. Lao,  A. Laurent,  
 K. V. Lawler,  D. Lefrancois,  S. Lehtola,  S. V. Levchenko,  C. Y. Lin,  
 Y.-S. Lin,  F. Liu,  E. Livshits,  R. C. Lochan,  A. Luenser,  P. Manohar,  
 S. F. Manzer,  S.-P. Mao,  Y. Mao,  N. Mardirossian,  A. V. Marenich,  
 L. A. Martinez-Martinez,  S. A. Maurer,  N. J. Mayhall,  J.-M. Mewes,  
 A. F. Morrison,  K. Nanda,  C. M. Oana,  R. Olivares-Amaya,  D. P. O'Neill,  
 J. A. Parkhill,  T. M. Perrine,  R. Peverati,  P. A. Pieniazek,  F. Plasser,  
 A. Prociuk,  D. R. Rehn,  E. Rosta,  N. J. Russ,  N. Sergueev,  
 S. M. Sharada,  S. Sharma,  D. W. Small,  A. Sodt,  T. Stauch,  T. Stein,  
 D. Stuck,  Y.-C. Su,  A. J. W. Thom,  T. Tsuchimochi,  L. Vogt,  O. Vydrov,  
 T. Wang,  M. A. Watson,  J. Wenzel,  A. White,  C. F. Williams,  
 V. Vanovschi,  S. Yeganeh,  S. R. Yost,  Z.-Q. You,  I. Y. Zhang,  X. Zhang,  
 Y. Zhao,  B. R. Brooks,  G. K. L. Chan,  D. M. Chipman,  C. J. Cramer,  
 W. A. Goddard III,  M. S. Gordon,  W. J. Hehre,  A. Klamt,  
 H. F. Schaefer III,  M. W. Schmidt,  C. D. Sherrill,  D. G. Truhlar,  
 A. Warshel,  X. Xu,  A. Aspuru-Guzik,  R. Baer,  A. T. Bell,  N. A. Besley,  
 J.-D. Chai,  A. Dreuw,  B. D. Dunietz,  T. R. Furlani,  S. R. Gwaltney,  
 C.-P. Hsu,  Y. Jung,  J. Kong,  D. S. Lambrecht,  W. Liang,  C. Ochsenfeld,  
 V. A. Rassolov,  L. V. Slipchenko,  J. E. Subotnik,  T. Van Voorhis,  
 J. M. Herbert,  A. I. Krylov,  P. M. W. Gill,  M. Head-Gordon

 Contributors to earlier versions of Q-Chem not listed above: 
 R. D. Adamson,  J. Baker,  E. F. C. Byrd,  A. K. Chakraborty,  C.-L. Cheng,  
 H. Dachsel,  R. J. Doerksen,  G. Hawkins,  A. Heyden,  S. Hirata,  
 G. Kedziora,  F. J. Keil,  C. Kelley,  P. P. Korambath,  W. Kurlancheek,  
 A. M. Lee,  M. S. Lee,  D. Liotard,  I. Lotan,  P. E. Maslen,  N. Nair,  
 D. Neuhauser,  R. Olson,  B. Peters,  J. Ritchie,  N. E. Schultz,  
 N. Shenvi,  A. C. Simmonett,  K. S. Thanthiriwatte,  Q. Wu,  W. Zhang

 Please cite Q-Chem as follows:
 Y. Shao et al., Mol. Phys. 113, 184-215 (2015)
 DOI: 10.1080/00268976.2014.952696

 Q-Chem 4.4.0 for Intel X86 Linux

 Parts of Q-Chem use Armadillo 5.200.1 (Boston Tea Smuggler).
 http://arma.sourceforge.net/

 Q-Chem begins on Fri Jun  2 06:28:01 2017  

Host: 
0

     Scratch files written to /home/Andres/temp/qchem14385//
 Apr2716 1281_ 20995  20993 0   
 Parallel job on  1  processors
Processing $rem in /usr/local/qchem44/config/preferences.
 MEM_TOTAL  16000 

Checking the input file for inconsistencies... 	...done.

--------------------------------------------------------------
User input:
--------------------------------------------------------------
$comment
OPTIMIZATION
$end

$rem
JOBTYPE OPT
EXCHANGE omegaB97X-D
BASIS cc-pVTZ
$end

$molecule
0 1
C          7.67777        0.34642       -0.33993
C          6.98892        1.51270       -0.04885
C          6.94370       -0.80400       -0.58243
C          5.60978        1.47954       -0.00352
N          5.61883       -0.85095       -0.53894
C          4.96205        0.26974       -0.24819
C          3.47962        0.21444       -0.19685
N          2.83481        1.33798       -0.34991
C          2.73362       -0.98872        0.03061
C          1.48160        1.40094       -0.31172
N          3.19870       -2.21714        0.26374
C          1.30325       -0.91788        0.05914
C          0.63707        0.33357       -0.11468
S          1.92034       -3.16172        0.46998
N          0.72482       -2.09492        0.29058
C         -0.80985        0.47767       -0.05204
S         -1.88040       -0.86682       -0.09381
C         -1.56638        1.64356        0.06446
C         -3.30736        0.06120        0.00792
N         -1.07341        2.91209        0.13774
C         -2.97696        1.40790        0.10327
C         -4.62265       -0.54017        0.00653
C         -1.95462        3.85869        0.23857
N         -3.87207        2.42642        0.21102
C         -5.78850       -0.01133        0.48882
S         -4.90180       -2.11612       -0.66218
C         -3.36222        3.61771        0.27514
C         -6.89590       -0.87751        0.33181
C         -6.56731       -2.05254       -0.26686
H          8.75733        0.32596       -0.37845
H          7.52022        2.43532        0.14280
H          7.44267       -1.73482       -0.82711
H          5.02391        2.35976        0.21256
H          1.06741        2.38942       -0.42819
H         -1.58537        4.87694        0.29040
H         -5.83313        0.97106        0.92819
H         -4.04850        4.45242        0.36420
H         -7.89525       -0.63350        0.65875
H         -7.21448       -2.87971       -0.50357
$end

--------------------------------------------------------------
 ----------------------------------------------------------------
             Standard Nuclear Orientation (Angstroms)
    I     Atom           X                Y                Z
 ----------------------------------------------------------------
    1      C       7.6790646706     0.3357776156    -0.1901574176
    2      C       6.9953457650     1.5134072055     0.0651226925
    3      C       6.9394475788    -0.8136223967    -0.4203255317
    4      C       5.6154272506     1.4922114787     0.0887271134
    5      N       5.6137050930    -0.8490762594    -0.3973890048
    6      C       4.9616771691     0.2827122658    -0.1409598184
    7      C       3.4782048724     0.2403329076    -0.1125604266
    8      N       2.8453028886     1.3654915503    -0.2996500815
    9      C       2.7186666511    -0.9517618987     0.1279800074
   10      C       1.4922241183     1.4400335468    -0.2847815285
   11      N       3.1697089002    -2.1786476177     0.3943951378
   12      C       1.2886613222    -0.8689308809     0.1317728068
   13      C       0.6357900964     0.3838365667    -0.0791043429
   14      S       1.8803890142    -3.1084320375     0.5996407658
   15      N       0.6968188597    -2.0361644220     0.3784654499
   16      C      -0.8107016964     0.5407620540    -0.0430217882
   17      S      -1.8915840427    -0.7957311462    -0.0739196004
   18      C      -1.5592864030     1.7148501935     0.0366485360
   19      C      -3.3122293539     0.1455815049    -0.0149081816
   20      N      -1.0570275698     2.9806746905     0.0912575804
   21      C      -2.9722187018     1.4913190244     0.0574793682
   22      C      -4.6322818449    -0.4451760996    -0.0250307764
   23      C      -1.9318433094     3.9361917148     0.1578455000
   24      N      -3.8604454045     2.5189948369     0.1292478448
   25      C      -5.8012964791     0.1030227479     0.4270360557
   26      S      -4.9137403457    -2.0326365997    -0.6649264415
   27      C      -3.3418043230     3.7072707799     0.1765973204
   28      C      -6.9131932778    -0.7574253230     0.2702900224
   29      C      -6.5848036424    -1.9474334721    -0.2981407213
   30      H       8.7588969426     0.3058998959    -0.2106947418
   31      H       7.5311493700     2.4356071423     0.2459509268
   32      H       7.4345295048    -1.7533569340    -0.6372543719
   33      H       5.0334985720     2.3814471795     0.2767174142
   34      H       1.0881931887     2.4291013365    -0.4287094366
   35      H      -1.5550204283     4.9523331451     0.1942609334
   36      H      -5.8448136482     1.0948076058     0.8448841113
   37      H      -4.0224631273     4.5491231291     0.2369373612
   38      H      -7.9156062429    -0.4985960738     0.5757515314
   39      H      -7.2349402893    -2.7742365525    -0.5279011362
 ----------------------------------------------------------------
 Molecular Point Group                 C1    NOp =  1
 Largest Abelian Subgroup              C1    NOp =  1
 Nuclear Repulsion Energy =  2930.0548933317 hartrees
 There are      110 alpha and      110 beta electrons
 Requested basis set is cc-pVTZ
 There are 356 shells and 1022 basis functions

 Total QAlloc Memory Limit  16000 MB
 Mega-Array Size        61 MB
 MEM_STATIC part        62 MB
 A cutoff of  1.0D-11 yielded  30933 shell pairs
 There are    243953 function pairs (    318403 Cartesian)
 
 -------------------------------------------------------
 OpenMP Integral Computing Module                       
 Release: version 1.0, May 2013, Q-Chem Inc. Pittsburgh 
 -------------------------------------------------------
 Integral Job Info:
 Integral job number is                      11
 Integral operator is                         1
 short-range coefficients              22203600
 long-range coefficients              100000000
 Omega coefficients                         200
 if combine SR and LR in K                    1
 Integral screening is                        0
 Integral computing path is                   2
 max size of driver memory is            800000
 size of driver memory is                776718
 size of scratch memory is             26248924
 max col of scratch BK array              10000
 max len of scratch array in speh3          662
 max len of scratch index in speh4           32
 max int batch size is                      520
 min int batch size is                       52
 fixed nKL is                                52
 max L of basis functions is                  3
 order of int derivative is                   0
 number of shells is                        356
 number of basis is                        1177
 number of cartesian basis is              1177
 number of contracted shell pairs         30933
 number of primitive shell pairs          93723
 maxK2 (contraction) of shell pair          121
 max number of K2 of shell pair               1
 max number of CS2 of shell pair           4271
 max number of PS2 of shell pair          13034
 mem total for path MDJ                  837060
 -------------------------------------------------------
 Smallest overlap matrix eigenvalue = 2.55E-05

 Scale SEOQF with 1.000000e-02/1.000000e-01/1.000000e+00

 Standard Electronic Orientation quadrupole field applied
 Nucleus-field energy     =     0.0000000443 hartrees
 Guess from superposition of atomic densities
 Warning:  Energy on first SCF cycle will be non-variational
 Long-range K will be added via erf
 Coulomb attenuation parameter = 0.2 bohr**(-1)
 A restricted hybrid HF-DFT SCF calculation will be
 performed using Pulay DIIS extrapolation
 Exchange:     0.2220 Hartree-Fock + 1.0000 wB97X-D + LR-HF
 Correlation:  1.0000 wB97X-D
 Using SG-1 standard quadrature grid
 Dispersion:   Grimme D
 SCF converges when DIIS error is below 1.0E-08
 using 4 threads for integral computing 
 using 4 threads for integral computing 
 K construction time:  CPU 81.25 s  wall 20.60 s
 -------------------------------------------------------
 OpenMP BLAS3 based DFT computing Module                
 Release: version 1.0, May 2013, Q-Chem Inc. Pittsburgh 
 -------------------------------------------------------
 ---------------------------------------
  Cycle       Energy         DIIS Error
 ---------------------------------------
    1   -2301.5513386548      1.84E-02
 K construction time:  CPU 1330.70 s  wall 334.89 s
    2   -2290.9476660118      1.33E-03
 K construction time:  CPU 1297.05 s  wall 326.36 s
    3   -2290.9799997013      1.34E-03
 K construction time:  CPU 1201.04 s  wall 302.19 s
    4   -2291.1887023358      2.13E-04
 K construction time:  CPU 1098.50 s  wall 276.44 s
    5   -2291.1931482384      1.38E-04
 K construction time:  CPU 1028.70 s  wall 258.83 s
    6   -2291.1953109137      4.88E-05
 K construction time:  CPU 1000.94 s  wall 251.84 s
    7   -2291.1956160827      1.79E-05
 K construction time:  CPU 948.41 s  wall 238.62 s
    8   -2291.1956700472      5.57E-06
 K construction time:  CPU 902.50 s  wall 226.95 s
    9   -2291.1956820858      3.73E-06
 K construction time:  CPU 845.87 s  wall 212.70 s
   10   -2291.1956861255      1.32E-06
 K construction time:  CPU 765.25 s  wall 192.35 s
   11   -2291.1956866906      7.36E-07
 K construction time:  CPU 719.50 s  wall 180.73 s
   12   -2291.1956868534      2.12E-07
 K construction time:  CPU 622.93 s  wall 156.47 s
   13   -2291.1956868685      1.18E-07
 K construction time:  CPU 561.34 s  wall 140.95 s
   14   -2291.1956868703      3.36E-08
 K construction time:  CPU 466.68 s  wall 117.04 s
   15   -2291.1956868702      1.65E-08
 K construction time:  CPU 1287.02 s  wall 323.93 s
   16   -2291.1956868708      5.28E-09 Convergence criterion met
 ---------------------------------------
 SCF time:  CPU 18616.33 s  wall 4703.10 s
 SCF   energy in the final basis set = -2291.1956868708
 Total energy in the final basis set = -2291.1956868708
 
 --------------------------------------------------------------
 
                    Orbital Energies (a.u.)
 --------------------------------------------------------------
 
 Alpha MOs
 -- Occupied --
-89.153 -89.107 -89.087 -14.482 -14.479 -14.463 -14.463 -14.445
-14.434 -10.355 -10.352 -10.351 -10.346 -10.344 -10.344 -10.342
-10.341 -10.338 -10.336 -10.335 -10.330 -10.326 -10.324 -10.320
-10.309 -10.301 -10.298 -10.295 -10.293  -8.157  -8.116  -8.097
 -6.107  -6.102  -6.101  -6.064  -6.061  -6.059  -6.046  -6.042
 -6.039  -1.143  -1.102  -1.068  -1.048  -1.030  -1.013  -1.003
 -0.986  -0.925  -0.911  -0.895  -0.879  -0.869  -0.853  -0.838
 -0.811  -0.777  -0.772  -0.748  -0.738  -0.731  -0.716  -0.711
 -0.672  -0.655  -0.648  -0.629  -0.628  -0.620  -0.607  -0.603
 -0.587  -0.575  -0.568  -0.560  -0.557  -0.548  -0.543  -0.526
 -0.512  -0.507  -0.501  -0.498  -0.493  -0.492  -0.485  -0.484
 -0.473  -0.466  -0.462  -0.461  -0.451  -0.443  -0.429  -0.427
 -0.418  -0.411  -0.392  -0.377  -0.372  -0.359  -0.358  -0.351
 -0.343  -0.339  -0.334  -0.334  -0.320  -0.264
 -- Virtual --
 -0.055  -0.024   0.024   0.032   0.042   0.051   0.071   0.073
  0.085   0.089   0.117   0.124   0.125   0.127   0.132   0.136
  0.150   0.153   0.156   0.164   0.169   0.176   0.183   0.190
  0.199   0.205   0.212   0.216   0.222   0.232   0.244   0.248
  0.258   0.267   0.268   0.277   0.283   0.288   0.294   0.294
  0.301   0.304   0.308   0.314   0.318   0.324   0.324   0.331
  0.333   0.339   0.342   0.346   0.351   0.353   0.355   0.357
  0.364   0.369   0.371   0.379   0.382   0.384   0.386   0.390
  0.392   0.394   0.397   0.400   0.402   0.408   0.411   0.411
  0.414   0.419   0.421   0.427   0.431   0.433   0.437   0.442
  0.445   0.447   0.449   0.455   0.458   0.461   0.463   0.464
  0.468   0.474   0.475   0.479   0.484   0.484   0.487   0.493
  0.494   0.501   0.504   0.509   0.511   0.516   0.518   0.520
  0.526   0.531   0.533   0.536   0.538   0.542   0.550   0.557
  0.558   0.564   0.567   0.576   0.579   0.591   0.596   0.601
  0.607   0.607   0.609   0.616   0.618   0.626   0.635   0.641
  0.644   0.648   0.653   0.656   0.662   0.666   0.668   0.676
  0.680   0.686   0.695   0.697   0.703   0.708   0.712   0.719
  0.725   0.727   0.732   0.735   0.740   0.744   0.748   0.758
  0.759   0.766   0.769   0.775   0.779   0.781   0.788   0.790
  0.792   0.799   0.803   0.806   0.810   0.820   0.823   0.826
  0.829   0.835   0.840   0.843   0.845   0.851   0.852   0.858
  0.862   0.868   0.870   0.875   0.882   0.888   0.899   0.906
  0.908   0.917   0.917   0.922   0.925   0.930   0.933   0.942
  0.947   0.951   0.954   0.957   0.961   0.965   0.968   0.972
  0.975   0.982   0.988   0.998   1.001   1.008   1.014   1.018
  1.019   1.031   1.031   1.038   1.049   1.051   1.057   1.058
  1.066   1.068   1.077   1.085   1.087   1.092   1.095   1.101
  1.105   1.108   1.112   1.117   1.122   1.128   1.136   1.141
  1.150   1.154   1.163   1.169   1.176   1.184   1.191   1.195
  1.205   1.210   1.216   1.218   1.231   1.234   1.236   1.243
  1.255   1.257   1.265   1.273   1.279   1.291   1.299   1.303
  1.311   1.312   1.322   1.329   1.339   1.343   1.350   1.355
  1.356   1.367   1.372   1.377   1.378   1.385   1.387   1.392
  1.397   1.406   1.414   1.420   1.425   1.429   1.436   1.438
  1.446   1.448   1.452   1.460   1.468   1.475   1.481   1.482
  1.490   1.494   1.503   1.509   1.513   1.513   1.527   1.536
  1.543   1.563   1.568   1.569   1.578   1.583   1.586   1.593
  1.605   1.611   1.616   1.626   1.631   1.641   1.643   1.649
  1.657   1.659   1.666   1.667   1.674   1.689   1.694   1.701
  1.705   1.711   1.720   1.727   1.728   1.735   1.742   1.746
  1.756   1.771   1.776   1.783   1.790   1.798   1.804   1.808
  1.819   1.831   1.843   1.856   1.869   1.876   1.882   1.886
  1.896   1.904   1.911   1.916   1.926   1.936   1.944   1.952
  1.958   1.971   1.973   1.983   1.988   1.995   2.001   2.007
  2.014   2.019   2.034   2.039   2.042   2.053   2.063   2.070
  2.075   2.092   2.097   2.104   2.109   2.114   2.120   2.128
  2.139   2.153   2.163   2.176   2.178   2.182   2.186   2.198
  2.202   2.209   2.215   2.220   2.235   2.244   2.246   2.252
  2.262   2.278   2.287   2.294   2.295   2.300   2.313   2.316
  2.319   2.328   2.338   2.344   2.350   2.367   2.371   2.375
  2.387   2.393   2.397   2.402   2.410   2.417   2.424   2.427
  2.436   2.442   2.453   2.456   2.461   2.466   2.473   2.483
  2.486   2.496   2.507   2.515   2.522   2.528   2.530   2.533
  2.539   2.544   2.548   2.553   2.558   2.567   2.588   2.604
  2.609   2.614   2.624   2.633   2.638   2.642   2.649   2.658
  2.661   2.667   2.672   2.683   2.687   2.697   2.713   2.722
  2.729   2.734   2.742   2.759   2.766   2.773   2.774   2.780
  2.783   2.788   2.791   2.805   2.806   2.813   2.821   2.830
  2.836   2.837   2.847   2.853   2.863   2.870   2.875   2.879
  2.884   2.888   2.894   2.908   2.916   2.922   2.929   2.935
  2.941   2.943   2.947   2.950   2.954   2.967   2.973   2.980
  2.989   2.990   3.001   3.006   3.007   3.012   3.014   3.021
  3.023   3.032   3.038   3.039   3.043   3.054   3.056   3.062
  3.065   3.069   3.072   3.076   3.080   3.082   3.084   3.086
  3.093   3.099   3.100   3.105   3.117   3.121   3.124   3.129
  3.135   3.139   3.148   3.157   3.159   3.165   3.166   3.168
  3.173   3.179   3.187   3.193   3.197   3.199   3.202   3.209
  3.212   3.217   3.219   3.222   3.225   3.233   3.236   3.241
  3.244   3.245   3.248   3.258   3.261   3.265   3.270   3.272
  3.279   3.284   3.288   3.291   3.297   3.299   3.306   3.308
  3.308   3.312   3.318   3.323   3.324   3.333   3.337   3.340
  3.352   3.358   3.363   3.369   3.377   3.383   3.388   3.396
  3.400   3.401   3.408   3.413   3.418   3.422   3.424   3.434
  3.441   3.445   3.446   3.456   3.461   3.463   3.474   3.476
  3.480   3.483   3.490   3.498   3.508   3.511   3.514   3.519
  3.524   3.530   3.535   3.558   3.561   3.566   3.570   3.584
  3.584   3.597   3.610   3.620   3.621   3.634   3.641   3.644
  3.653   3.669   3.676   3.687   3.688   3.693   3.700   3.712
  3.713   3.721   3.731   3.735   3.739   3.750   3.753   3.756
  3.770   3.775   3.781   3.789   3.790   3.800   3.802   3.812
  3.816   3.831   3.836   3.839   3.852   3.857   3.874   3.878
  3.889   3.904   3.906   3.911   3.915   3.922   3.927   3.931
  3.934   3.937   3.940   3.952   3.957   3.960   3.967   3.982
  3.984   3.992   3.998   4.006   4.018   4.024   4.030   4.038
  4.046   4.059   4.068   4.073   4.077   4.091   4.098   4.103
  4.114   4.117   4.125   4.145   4.153   4.157   4.169   4.172
  4.186   4.193   4.200   4.204   4.207   4.218   4.221   4.227
  4.231   4.234   4.238   4.249   4.254   4.263   4.269   4.284
  4.286   4.293   4.298   4.313   4.322   4.323   4.329   4.337
  4.348   4.354   4.358   4.362   4.374   4.378   4.392   4.396
  4.406   4.410   4.426   4.433   4.437   4.443   4.447   4.452
  4.460   4.481   4.495   4.499   4.514   4.523   4.526   4.531
  4.546   4.554   4.563   4.573   4.584   4.591   4.603   4.607
  4.624   4.642   4.646   4.650   4.660   4.677   4.681   4.691
  4.714   4.725   4.733   4.743   4.755   4.773   4.779   4.792
  4.795   4.807   4.810   4.817   4.827   4.844   4.848   4.867
  4.874   4.878   4.887   4.893   4.902   4.916   4.922   4.936
  4.938   4.950   4.958   4.962   4.972   4.978   4.986   4.994
  4.999   5.004   5.010   5.018   5.034   5.046   5.048   5.055
  5.072   5.083   5.097   5.099   5.106   5.114   5.117   5.130
  5.137   5.144   5.151   5.156   5.172   5.176   5.185   5.192
  5.212   5.222   5.243   5.248   5.268   5.303   5.307   5.315
  5.321   5.344   5.353   5.377   5.384   5.403   5.424   5.429
  5.452   5.467   5.478   5.490   5.497   5.500   5.530   5.541
  5.563   5.577   5.578   5.592   5.599   5.609   5.628   5.648
  5.674   5.697   5.720   5.723   5.745   5.753   5.755   5.792
  5.799   5.832   5.840   5.859   5.881   5.900   5.912   5.928
  5.953   5.977   6.017   6.044   6.087   6.133   6.158   6.184
  6.204   6.244   6.254   6.303   6.325   6.354   6.383   6.432
  6.446   6.492   6.639   6.874   6.988   7.080   8.068   8.889
  9.818  10.202  10.667  11.139  11.260  11.685  12.018  12.133
 12.416  12.639  12.766  12.832  12.856  12.965  13.087  13.176
 13.331  13.430  13.555  14.165  14.389  14.664  15.067  15.103
 --------------------------------------------------------------
 
          Ground-State Mulliken Net Atomic Charges

     Atom                 Charge (a.u.)
  ----------------------------------------
      1 C                    -0.088177
      2 C                    -0.131289
      3 C                    -0.081094
      4 C                    -0.120571
      5 N                    -0.145347
      6 C                     0.082593
      7 C                     0.099467
      8 N                    -0.177879
      9 C                    -0.015325
     10 C                    -0.083836
     11 N                    -0.218732
     12 C                     0.050396
     13 C                     0.059417
     14 S                     0.407288
     15 N                    -0.306516
     16 C                    -0.071694
     17 S                     0.177897
     18 C                     0.060497
     19 C                    -0.055102
     20 N                    -0.170327
     21 C                     0.063624
     22 C                    -0.011915
     23 C                    -0.042316
     24 N                    -0.161342
     25 C                    -0.137249
     26 S                     0.103465
     27 C                    -0.046651
     28 C                    -0.158396
     29 C                    -0.182129
     30 H                     0.129231
     31 H                     0.121146
     32 H                     0.120738
     33 H                     0.139364
     34 H                     0.136419
     35 H                     0.124321
     36 H                     0.133399
     37 H                     0.129067
     38 H                     0.131289
     39 H                     0.136264
  ----------------------------------------
  Sum of atomic charges =     0.000000

 -----------------------------------------------------------------
                    Cartesian Multipole Moments
 -----------------------------------------------------------------
    Charge (ESU x 10^10)
                 0.0000
    Dipole Moment (Debye)
         X      -0.3440      Y       1.5655      Z       0.7673
       Tot       1.7770
    Quadrupole Moments (Debye-Ang)
        XX    -151.7291     XY       3.4581     YY    -164.8040
        XZ       0.1741     YZ       2.5887     ZZ    -186.8655
    Octopole Moments (Debye-Ang^2)
       XXX     104.5787    XXY      14.5667    XYY     -38.1539
       YYY      38.6875    XXZ      15.9767    XYZ      -7.1076
       YYZ       5.7402    XZZ       0.9422    YZZ      -7.7038
       ZZZ       2.9580
    Hexadecapole Moments (Debye-Ang^3)
      XXXX  -15944.9100   XXXY     566.7096   XXYY   -3533.5695
      XYYY    -160.8537   YYYY   -3425.9776   XXXZ    -115.6314
      XXYZ     134.6528   XYYZ      36.7843   YYYZ      20.7398
      XXZZ   -3459.9133   XYZZ     -30.2526   YYZZ    -724.9878
      XZZZ      12.4655   YZZZ      -6.4981   ZZZZ    -322.2447
 -----------------------------------------------------------------
 Calculating analytic gradient of the SCF energy
 K construction time:  CPU 2784.74 s  wall 697.96 s
 Gradient of SCF Energy
            1           2           3           4           5           6
    1  -0.0000017   0.0001032   0.0000023   0.0000183  -0.0000176   0.0000505
    2   0.0000514  -0.0000061  -0.0000299   0.0000283   0.0000318   0.0001094
    3  -0.0000937  -0.0000574   0.0002199   0.0000163   0.0000248   0.0000014
            7           8           9          10          11          12
    1  -0.0000119   0.0000755  -0.0001662  -0.0001526   0.0000393  -0.0001797
    2  -0.0001004   0.0000461  -0.0000666   0.0001309   0.0000561   0.0000162
    3   0.0000334  -0.0000880   0.0002083  -0.0001001  -0.0001673   0.0001622
           13          14          15          16          17          18
    1   0.0001821  -0.0000413   0.0000594   0.0000055   0.0000369  -0.0001210
    2  -0.0001422  -0.0000613   0.0000414   0.0000448  -0.0000268   0.0001128
    3  -0.0002115   0.0001006  -0.0000845  -0.0000214  -0.0001183   0.0001207
           19          20          21          22          23          24
    1   0.0001849  -0.0000391  -0.0002398  -0.0001094  -0.0000262   0.0000449
    2  -0.0000886  -0.0000412   0.0000029   0.0000097  -0.0000024   0.0000454
    3   0.0000931  -0.0000496   0.0000650   0.0000266   0.0001021  -0.0000061
           25          26          27          28          29          30
    1   0.0000251   0.0000820   0.0000789   0.0002169  -0.0001608   0.0000067
    2  -0.0000215  -0.0000717  -0.0000177   0.0001102   0.0000102  -0.0000577
    3   0.0000995  -0.0001184  -0.0000684   0.0000834   0.0000153   0.0001315
           31          32          33          34          35          36
    1   0.0000029  -0.0000574  -0.0000560   0.0001235   0.0001023  -0.0000442
    2   0.0000058   0.0000057  -0.0000320   0.0000128  -0.0000084   0.0000436
    3   0.0000253  -0.0001051  -0.0000658   0.0001355  -0.0000831  -0.0002010
           37          38          39
    1   0.0000057  -0.0000137  -0.0000082
    2  -0.0000403  -0.0000821  -0.0000187
    3   0.0000785  -0.0000910  -0.0000125
 Max gradient component =       2.398E-04
 RMS gradient           =       9.121E-05
 Gradient time:  CPU 3304.83 s  wall 829.21 s
 Geometry Optimization Parameters
   NAtoms,    NIC,     NZ,  NCons,   NDum,   NFix, NCnnct, MaxDiis
       39     293       0       0       0       0       0       0


** GEOMETRY OPTIMIZATION IN DELOCALIZED INTERNAL COORDINATES **
   Searching for a Minimum

   Optimization Cycle:   1

                       Coordinates (Angstroms)
     ATOM                X               Y               Z
      1  C         7.6790646706    0.3357776156   -0.1901574176
      2  C         6.9953457650    1.5134072055    0.0651226925
      3  C         6.9394475788   -0.8136223967   -0.4203255317
      4  C         5.6154272506    1.4922114787    0.0887271134
      5  N         5.6137050930   -0.8490762594   -0.3973890048
      6  C         4.9616771691    0.2827122658   -0.1409598184
      7  C         3.4782048724    0.2403329076   -0.1125604266
      8  N         2.8453028886    1.3654915503   -0.2996500815
      9  C         2.7186666511   -0.9517618987    0.1279800074
     10  C         1.4922241183    1.4400335468   -0.2847815285
     11  N         3.1697089002   -2.1786476177    0.3943951378
     12  C         1.2886613222   -0.8689308809    0.1317728068
     13  C         0.6357900964    0.3838365667   -0.0791043429
     14  S         1.8803890142   -3.1084320375    0.5996407658
     15  N         0.6968188597   -2.0361644220    0.3784654499
     16  C        -0.8107016964    0.5407620540   -0.0430217882
     17  S        -1.8915840427   -0.7957311462   -0.0739196004
     18  C        -1.5592864030    1.7148501935    0.0366485360
     19  C        -3.3122293539    0.1455815049   -0.0149081816
     20  N        -1.0570275698    2.9806746905    0.0912575804
     21  C        -2.9722187018    1.4913190244    0.0574793682
     22  C        -4.6322818449   -0.4451760996   -0.0250307764
     23  C        -1.9318433094    3.9361917148    0.1578455000
     24  N        -3.8604454045    2.5189948369    0.1292478448
     25  C        -5.8012964791    0.1030227479    0.4270360557
     26  S        -4.9137403457   -2.0326365997   -0.6649264415
     27  C        -3.3418043230    3.7072707799    0.1765973204
     28  C        -6.9131932778   -0.7574253230    0.2702900224
     29  C        -6.5848036424   -1.9474334721   -0.2981407213
     30  H         8.7588969426    0.3058998959   -0.2106947418
     31  H         7.5311493700    2.4356071423    0.2459509268
     32  H         7.4345295048   -1.7533569340   -0.6372543719
     33  H         5.0334985720    2.3814471795    0.2767174142
     34  H         1.0881931887    2.4291013365   -0.4287094366
     35  H        -1.5550204283    4.9523331451    0.1942609334
     36  H        -5.8448136482    1.0948076058    0.8448841113
     37  H        -4.0224631273    4.5491231291    0.2369373612
     38  H        -7.9156062429   -0.4985960738    0.5757515314
     39  H        -7.2349402893   -2.7742365525   -0.5279011362
   Point Group: c1    Number of degrees of freedom:   111


   Energy is  -2291.195686871


 Attempting to Generate Delocalized Internal Coordinates

111 Hessian modes will be used to form the next step
  Hessian Eigenvalues:
     0.011249    0.015075    0.016243    0.016289    0.016629    0.017387
     0.017502    0.018537    0.018893    0.018931    0.019288    0.019403
     0.019551    0.020038    0.020248    0.020825    0.021167    0.021499
     0.021587    0.021912    0.022053    0.022449    0.023052    0.023503
     0.023751    0.023754    0.024170    0.024179    0.024292    0.024492
     0.024583    0.024722    0.024962    0.024965    0.025253    0.026067
     0.159975    0.159986    0.159993    0.159997    0.159998    0.159999
     0.159999    0.159999    0.160000    0.160000    0.219997    0.221292
     0.223767    0.224238    0.233060    0.237960    0.243334    0.244278
     0.249666    0.249885    0.249924    0.249965    0.249967    0.249971
     0.249976    0.249982    0.249988    0.249991    0.249992    0.249994
     0.249997    0.312647    0.327908    0.333770    0.340764    0.341529
     0.354711    0.354827    0.355039    0.357807    0.359411    0.360654
     0.360884    0.362299    0.363479    0.364081    0.369034    0.372880
     0.375428    0.387406    0.391083    0.406768    0.407215    0.419671
     0.432407    0.441185    0.460025    0.465913    0.470114    0.473381
     0.482756    0.484227    0.485021    0.485943    0.503852    0.517208
     0.519359    0.525120    0.558131    0.573050    0.582460    0.590605
     0.639845    0.655325    0.664015

 Minimum Search - Taking Simple RFO Step
 Searching for Lamda that Minimizes Along All modes
 Value Taken    Lamda =  -0.00002248
 Step Taken.  Stepsize is  0.033768

                             Maximum     Tolerance    Cnvgd?
         Gradient           0.000642      0.000300      NO
         Displacement       0.022364      0.001200      NO
         Energy change     *********      0.000001      NO


 New Cartesian Coordinates Obtained by Inverse Iteration

 Displacement from previous Coordinates is:  0.167876
 ----------------------------------------------------------------
             Standard Nuclear Orientation (Angstroms)
    I     Atom           X                Y                Z
 ----------------------------------------------------------------
    1      C       7.6789970601     0.3421391196    -0.1976894240
    2      C       6.9938797174     1.5142273019     0.0783397724
    3      C       6.9409503445    -0.8057061165    -0.4403027517
    4      C       5.6142724799     1.4896194900     0.1078375805
    5      N       5.6153630455    -0.8447091567    -0.4110702954
    6      C       4.9620630823     0.2821586650    -0.1364379221
    7      C       3.4787572405     0.2382438650    -0.1059900623
    8      N       2.8447762901     1.3636559610    -0.2874541378
    9      C       2.7202641861    -0.9555907366     0.1285878693
   10      C       1.4917186132     1.4368446049    -0.2730607028
   11      N       3.1721807109    -2.1831125720     0.3907331276
   12      C       1.2900261539    -0.8735293825     0.1346012828
   13      C       0.6358915137     0.3797531712    -0.0705515866
   14      S       1.8835366782    -3.1149138035     0.5905470032
   15      N       0.6990427529    -2.0422078833     0.3767021964
   16      C      -0.8106655301     0.5370109345    -0.0371705214
   17      S      -1.8931534032    -0.7983619162    -0.0663162293
   18      C      -1.5582156406     1.7122402549     0.0354338004
   19      C      -3.3129881532     0.1447427316    -0.0145511027
   20      N      -1.0554360065     2.9781409005     0.0864669683
   21      C      -2.9713828600     1.4902232778     0.0523694983
   22      C      -4.6338633884    -0.4441260209    -0.0230732064
   23      C      -1.9300551074     3.9345392879     0.1446141558
   24      N      -3.8593549643     2.5186891463     0.1156083924
   25      C      -5.8013152304     0.1051461201     0.4319357345
   26      S      -4.9186457910    -2.0311588406    -0.6621256277
   27      C      -3.3402788462     3.7068877711     0.1585654297
   28      C      -6.9151807405    -0.7529760538     0.2754456536
   29      C      -6.5893347407    -1.9428253833    -0.2948302124
   30      H       8.7587464137     0.3157134909    -0.2255658855
   31      H       7.5284737182     2.4350417875     0.2694318144
   32      H       7.4375649982    -1.7414296408    -0.6707152294
   33      H       5.0317004017     2.3749882984     0.3115041164
   34      H       1.0862240772     2.4254136297    -0.4168659551
   35      H      -1.5533081778     4.9507352566     0.1791576873
   36      H      -5.8419136997     1.0953414160     0.8539493755
   37      H      -4.0205381940     4.5497015295     0.2101737728
   38      H      -7.9163547660    -0.4925989334     0.5837961549
   39      H      -7.2410425408    -2.7683891673    -0.5244574018
 ----------------------------------------------------------------
 Molecular Point Group                 C1    NOp =  1
 Largest Abelian Subgroup              C1    NOp =  1
 Nuclear Repulsion Energy =  2929.7304080984 hartrees
 There are      110 alpha and      110 beta electrons
 Applying Cartesian multipole field
    Component          Value
    ---------          -----
     (2,0,0)        1.00000E-12
     (0,2,0)        2.00000E-11
     (0,0,2)       -3.00000E-10
 Nucleus-field energy     =     0.0000000445 hartrees
 Requested basis set is cc-pVTZ
 There are 356 shells and 1022 basis functions
 A cutoff of  1.0D-11 yielded  30935 shell pairs
 There are    244015 function pairs (    318483 Cartesian)
 Smallest overlap matrix eigenvalue = 2.55E-05
 Guess MOs from SCF MO coefficient file
 Reading MOs from coefficient file
 Reading MOs from coefficient file
 Long-range K will be added via erf
 Coulomb attenuation parameter = 0.2 bohr**(-1)
 A restricted hybrid HF-DFT SCF calculation will be
 performed using Pulay DIIS extrapolation
 Exchange:     0.2220 Hartree-Fock + 1.0000 wB97X-D + LR-HF
 Correlation:  1.0000 wB97X-D
 Using SG-1 standard quadrature grid
 Dispersion:   Grimme D
 SCF converges when DIIS error is below 1.0E-08
 Geometry optimization detected.  Setting ReadMinima to 0
 Setting SaveMinima to 0
 using 4 threads for integral computing 
 using 4 threads for integral computing 
 K construction time:  CPU 1283.47 s  wall 323.11 s
 -------------------------------------------------------
 OpenMP BLAS3 based DFT computing Module                
 Release: version 1.0, May 2013, Q-Chem Inc. Pittsburgh 
 -------------------------------------------------------
 ---------------------------------------
  Cycle       Energy         DIIS Error
 ---------------------------------------
    1   -2291.1948157546      1.05E-04
 K construction time:  CPU 1294.93 s  wall 325.94 s
    2   -2291.1956490656      1.04E-05
 K construction time:  CPU 861.23 s  wall 216.54 s
    3   -2291.1956889084      4.88E-06
 K construction time:  CPU 820.86 s  wall 206.40 s
    4   -2291.1956922875      4.24E-06
 K construction time:  CPU 782.65 s  wall 196.79 s
    5   -2291.1956948512      1.51E-06
 K construction time:  CPU 689.59 s  wall 173.28 s
    6   -2291.1956951798      5.57E-07
 K construction time:  CPU 617.74 s  wall 155.12 s
    7   -2291.1956952234      1.97E-07
 K construction time:  CPU 576.61 s  wall 144.80 s
    8   -2291.1956952315      9.40E-08
 K construction time:  CPU 512.57 s  wall 128.60 s
    9   -2291.1956952332      3.53E-08
 K construction time:  CPU 446.64 s  wall 112.09 s
   10   -2291.1956952327      1.82E-08
 K construction time:  CPU 405.82 s  wall 101.80 s
   11   -2291.1956952319      6.63E-09 Convergence criterion met
 ---------------------------------------
 SCF time:  CPU 11077.94 s  wall 2797.78 s
 SCF   energy in the final basis set = -2291.1956952319
 Total energy in the final basis set = -2291.1956952319
 
 --------------------------------------------------------------
 
                    Orbital Energies (a.u.)
 --------------------------------------------------------------
 
 Alpha MOs
 -- Occupied --
-89.153 -89.107 -89.087 -14.482 -14.479 -14.463 -14.463 -14.445
-14.434 -10.355 -10.352 -10.351 -10.346 -10.344 -10.344 -10.342
-10.342 -10.338 -10.336 -10.335 -10.330 -10.326 -10.324 -10.320
-10.309 -10.301 -10.298 -10.295 -10.293  -8.157  -8.116  -8.097
 -6.107  -6.102  -6.101  -6.064  -6.061  -6.059  -6.046  -6.042
 -6.039  -1.143  -1.102  -1.068  -1.048  -1.030  -1.013  -1.003
 -0.986  -0.925  -0.911  -0.895  -0.879  -0.869  -0.853  -0.838
 -0.812  -0.777  -0.772  -0.748  -0.738  -0.731  -0.716  -0.711
 -0.672  -0.655  -0.649  -0.629  -0.628  -0.620  -0.607  -0.603
 -0.587  -0.576  -0.568  -0.560  -0.557  -0.548  -0.543  -0.526
 -0.512  -0.507  -0.501  -0.498  -0.493  -0.492  -0.485  -0.484
 -0.473  -0.466  -0.462  -0.461  -0.451  -0.443  -0.429  -0.427
 -0.418  -0.411  -0.392  -0.377  -0.372  -0.359  -0.357  -0.351
 -0.343  -0.339  -0.334  -0.334  -0.320  -0.264
 -- Virtual --
 -0.055  -0.024   0.024   0.032   0.042   0.051   0.071   0.073
  0.085   0.089   0.117   0.124   0.125   0.127   0.132   0.136
  0.150   0.153   0.156   0.164   0.169   0.176   0.183   0.190
  0.199   0.205   0.212   0.216   0.222   0.232   0.244   0.248
  0.258   0.267   0.268   0.277   0.283   0.287   0.294   0.294
  0.300   0.304   0.308   0.314   0.318   0.324   0.324   0.331
  0.333   0.339   0.342   0.346   0.351   0.353   0.355   0.357
  0.365   0.369   0.371   0.379   0.382   0.384   0.386   0.390
  0.392   0.394   0.397   0.400   0.402   0.408   0.411   0.411
  0.414   0.419   0.421   0.427   0.431   0.433   0.436   0.442
  0.445   0.447   0.449   0.455   0.458   0.461   0.463   0.464
  0.468   0.474   0.475   0.479   0.484   0.484   0.487   0.493
  0.494   0.501   0.504   0.509   0.511   0.516   0.518   0.520
  0.526   0.531   0.533   0.536   0.538   0.542   0.550   0.557
  0.558   0.564   0.567   0.576   0.579   0.590   0.596   0.601
  0.607   0.607   0.609   0.616   0.618   0.626   0.635   0.641
  0.644   0.647   0.653   0.655   0.662   0.666   0.668   0.676
  0.679   0.686   0.695   0.698   0.703   0.708   0.712   0.719
  0.725   0.727   0.732   0.734   0.740   0.743   0.748   0.758
  0.759   0.766   0.769   0.775   0.779   0.780   0.788   0.790
  0.792   0.799   0.803   0.806   0.810   0.820   0.823   0.826
  0.829   0.834   0.840   0.843   0.844   0.851   0.852   0.858
  0.862   0.868   0.870   0.875   0.882   0.888   0.899   0.905
  0.908   0.917   0.918   0.922   0.926   0.930   0.933   0.942
  0.947   0.951   0.954   0.957   0.961   0.965   0.968   0.972
  0.975   0.983   0.989   0.998   1.001   1.007   1.014   1.018
  1.019   1.031   1.031   1.039   1.050   1.052   1.057   1.058
  1.066   1.068   1.078   1.085   1.087   1.091   1.095   1.101
  1.106   1.108   1.112   1.117   1.122   1.129   1.136   1.141
  1.150   1.154   1.163   1.169   1.176   1.183   1.191   1.195
  1.205   1.210   1.216   1.218   1.231   1.234   1.236   1.243
  1.255   1.257   1.265   1.273   1.279   1.292   1.299   1.303
  1.311   1.312   1.322   1.329   1.339   1.343   1.350   1.355
  1.356   1.367   1.372   1.377   1.378   1.385   1.387   1.391
  1.397   1.406   1.414   1.420   1.425   1.429   1.436   1.438
  1.446   1.448   1.452   1.460   1.468   1.476   1.481   1.482
  1.490   1.494   1.503   1.509   1.513   1.513   1.527   1.536
  1.543   1.563   1.568   1.570   1.578   1.583   1.586   1.593
  1.605   1.611   1.616   1.626   1.631   1.641   1.643   1.649
  1.657   1.659   1.666   1.667   1.674   1.690   1.694   1.702
  1.706   1.711   1.720   1.727   1.728   1.735   1.742   1.746
  1.756   1.771   1.776   1.783   1.790   1.797   1.805   1.808
  1.819   1.831   1.843   1.855   1.869   1.876   1.882   1.886
  1.896   1.904   1.911   1.916   1.926   1.936   1.944   1.952
  1.958   1.971   1.973   1.983   1.987   1.995   2.001   2.008
  2.014   2.019   2.034   2.039   2.042   2.053   2.063   2.070
  2.075   2.092   2.097   2.104   2.109   2.113   2.120   2.129
  2.139   2.153   2.164   2.177   2.178   2.182   2.186   2.198
  2.202   2.209   2.215   2.219   2.234   2.244   2.246   2.252
  2.262   2.278   2.287   2.294   2.295   2.300   2.313   2.316
  2.319   2.328   2.338   2.345   2.350   2.368   2.371   2.375
  2.387   2.393   2.396   2.402   2.410   2.416   2.424   2.427
  2.436   2.442   2.453   2.456   2.461   2.466   2.473   2.483
  2.487   2.496   2.507   2.514   2.522   2.528   2.530   2.533
  2.538   2.544   2.549   2.553   2.558   2.567   2.587   2.604
  2.609   2.614   2.624   2.633   2.638   2.642   2.650   2.658
  2.661   2.668   2.672   2.683   2.687   2.697   2.713   2.722
  2.729   2.733   2.742   2.759   2.766   2.773   2.774   2.780
  2.783   2.787   2.791   2.805   2.806   2.813   2.820   2.830
  2.836   2.837   2.847   2.853   2.863   2.870   2.875   2.879
  2.884   2.888   2.894   2.908   2.916   2.921   2.929   2.935
  2.941   2.943   2.947   2.950   2.954   2.967   2.972   2.980
  2.988   2.990   3.001   3.006   3.006   3.012   3.014   3.021
  3.023   3.033   3.038   3.039   3.043   3.054   3.056   3.062
  3.065   3.069   3.072   3.076   3.080   3.083   3.084   3.086
  3.093   3.099   3.100   3.105   3.116   3.121   3.125   3.129
  3.135   3.140   3.148   3.157   3.159   3.165   3.167   3.168
  3.173   3.179   3.187   3.193   3.197   3.199   3.202   3.209
  3.212   3.217   3.219   3.222   3.225   3.233   3.236   3.241
  3.244   3.245   3.248   3.259   3.262   3.265   3.270   3.272
  3.279   3.284   3.288   3.291   3.297   3.299   3.306   3.308
  3.309   3.312   3.318   3.323   3.324   3.333   3.337   3.340
  3.352   3.358   3.363   3.369   3.377   3.383   3.387   3.396
  3.400   3.401   3.408   3.413   3.419   3.421   3.424   3.434
  3.441   3.445   3.445   3.456   3.461   3.464   3.475   3.476
  3.480   3.484   3.490   3.498   3.508   3.511   3.514   3.519
  3.524   3.530   3.535   3.557   3.561   3.566   3.570   3.584
  3.584   3.597   3.610   3.620   3.621   3.634   3.641   3.644
  3.653   3.669   3.676   3.687   3.688   3.693   3.700   3.712
  3.713   3.721   3.731   3.735   3.739   3.750   3.753   3.756
  3.771   3.774   3.781   3.789   3.790   3.800   3.802   3.811
  3.816   3.831   3.836   3.839   3.853   3.857   3.874   3.878
  3.889   3.904   3.906   3.911   3.915   3.923   3.927   3.931
  3.934   3.936   3.940   3.952   3.957   3.960   3.967   3.982
  3.984   3.992   3.998   4.006   4.018   4.024   4.030   4.037
  4.046   4.059   4.069   4.072   4.077   4.091   4.098   4.103
  4.114   4.118   4.125   4.145   4.153   4.157   4.169   4.173
  4.185   4.193   4.201   4.204   4.207   4.218   4.221   4.227
  4.231   4.234   4.238   4.249   4.254   4.263   4.268   4.284
  4.286   4.293   4.298   4.313   4.322   4.323   4.329   4.337
  4.348   4.354   4.358   4.363   4.375   4.379   4.392   4.396
  4.407   4.410   4.426   4.433   4.437   4.443   4.447   4.452
  4.460   4.481   4.494   4.499   4.515   4.523   4.526   4.531
  4.546   4.554   4.563   4.573   4.584   4.591   4.602   4.608
  4.624   4.642   4.646   4.650   4.660   4.677   4.681   4.691
  4.714   4.725   4.733   4.743   4.755   4.773   4.778   4.793
  4.795   4.807   4.810   4.817   4.826   4.845   4.847   4.867
  4.874   4.879   4.887   4.892   4.903   4.916   4.922   4.937
  4.938   4.950   4.958   4.963   4.972   4.978   4.986   4.994
  4.999   5.004   5.010   5.017   5.033   5.046   5.047   5.055
  5.072   5.083   5.097   5.099   5.107   5.114   5.117   5.131
  5.137   5.144   5.151   5.156   5.172   5.176   5.184   5.192
  5.212   5.222   5.243   5.249   5.268   5.303   5.307   5.315
  5.321   5.344   5.353   5.377   5.384   5.404   5.425   5.429
  5.453   5.466   5.478   5.490   5.497   5.500   5.530   5.541
  5.563   5.576   5.577   5.591   5.598   5.610   5.628   5.647
  5.674   5.697   5.721   5.723   5.745   5.752   5.755   5.791
  5.799   5.832   5.839   5.859   5.881   5.900   5.913   5.927
  5.952   5.977   6.017   6.044   6.087   6.133   6.157   6.184
  6.204   6.244   6.254   6.302   6.324   6.354   6.383   6.431
  6.446   6.492   6.639   6.874   6.988   7.079   8.069   8.889
  9.816  10.201  10.666  11.139  11.261  11.682  12.017  12.134
 12.415  12.636  12.766  12.833  12.855  12.963  13.085  13.180
 13.330  13.426  13.554  14.166  14.387  14.664  15.066  15.103
 --------------------------------------------------------------
 
          Ground-State Mulliken Net Atomic Charges

     Atom                 Charge (a.u.)
  ----------------------------------------
      1 C                    -0.088257
      2 C                    -0.131241
      3 C                    -0.081098
      4 C                    -0.120381
      5 N                    -0.145824
      6 C                     0.083292
      7 C                     0.099057
      8 N                    -0.177827
      9 C                    -0.015713
     10 C                    -0.083789
     11 N                    -0.218949
     12 C                     0.050599
     13 C                     0.059741
     14 S                     0.407386
     15 N                    -0.306635
     16 C                    -0.071908
     17 S                     0.177917
     18 C                     0.060277
     19 C                    -0.055294
     20 N                    -0.170253
     21 C                     0.063291
     22 C                    -0.011759
     23 C                    -0.042270
     24 N                    -0.161092
     25 C                    -0.136991
     26 S                     0.103754
     27 C                    -0.046718
     28 C                    -0.158280
     29 C                    -0.182096
     30 H                     0.129248
     31 H                     0.121168
     32 H                     0.120814
     33 H                     0.139090
     34 H                     0.136662
     35 H                     0.124247
     36 H                     0.133139
     37 H                     0.129285
     38 H                     0.131215
     39 H                     0.136194
  ----------------------------------------
  Sum of atomic charges =     0.000000

 -----------------------------------------------------------------
                    Cartesian Multipole Moments
 -----------------------------------------------------------------
    Charge (ESU x 10^10)
                 0.0000
    Dipole Moment (Debye)
         X      -0.3556      Y       1.5690      Z       0.7713
       Tot       1.7841
    Quadrupole Moments (Debye-Ang)
        XX    -151.7290     XY       3.4764     YY    -164.8270
        XZ       0.1550     YZ       2.5992     ZZ    -186.8403
    Octopole Moments (Debye-Ang^2)
       XXX     104.1432    XXY      14.9592    XYY     -38.2709
       YYY      39.1192    XXZ      16.0853    XYZ      -6.5558
       YYZ       5.4394    XZZ       1.0889    YZZ      -7.4669
       ZZZ       2.8853
    Hexadecapole Moments (Debye-Ang^3)
      XXXX  -15952.0806   XXXY     570.0219   XXYY   -3537.0019
      XYYY    -161.5538   YYYY   -3426.4628   XXXZ    -121.6569
      XXYZ     137.4599   XYYZ      38.4714   YYYZ      20.0858
      XXZZ   -3459.0497   XYZZ     -30.0368   YYZZ    -725.0912
      XZZZ      12.4847   YZZZ      -5.7430   ZZZZ    -321.6023
 -----------------------------------------------------------------
 Calculating analytic gradient of the SCF energy
 K construction time:  CPU 2782.19 s  wall 697.43 s
 Gradient of SCF Energy
            1           2           3           4           5           6
    1  -0.0000059  -0.0000162  -0.0000150   0.0000261   0.0001367  -0.0000538
    2   0.0000182  -0.0000393   0.0000091   0.0000276   0.0000272  -0.0000153
    3   0.0000634   0.0001007  -0.0001952  -0.0000695   0.0000270   0.0000456
            7           8           9          10          11          12
    1   0.0000732  -0.0000516   0.0000229  -0.0001096  -0.0000222   0.0000063
    2   0.0000659  -0.0000187  -0.0001092  -0.0000655   0.0000018  -0.0000434
    3   0.0000987   0.0000164  -0.0002599  -0.0000144   0.0002563   0.0000977
           13          14          15          16          17          18
    1   0.0000565  -0.0000282   0.0000579   0.0000008  -0.0001133  -0.0000400
    2   0.0001078   0.0000070  -0.0000106   0.0000398   0.0000705   0.0000244
    3   0.0000389  -0.0002319   0.0001210  -0.0000048  -0.0001853   0.0001501
           19          20          21          22          23          24
    1   0.0000690   0.0001452  -0.0001060  -0.0000244  -0.0000356   0.0000654
    2  -0.0000296  -0.0001572  -0.0000196   0.0000823   0.0000562   0.0000358
    3   0.0000017  -0.0000388   0.0000037  -0.0000976  -0.0000292   0.0000199
           25          26          27          28          29          30
    1  -0.0000861   0.0001022   0.0000321   0.0000561  -0.0001071   0.0000001
    2  -0.0000270  -0.0001150   0.0000147   0.0000387   0.0000624   0.0000061
    3  -0.0000226   0.0001322  -0.0000058  -0.0000055  -0.0000875   0.0000162
           31          32          33          34          35          36
    1  -0.0000203   0.0000252  -0.0000066  -0.0000573   0.0000032   0.0000397
    2   0.0000006  -0.0000044  -0.0000032   0.0000274  -0.0000042  -0.0000011
    3  -0.0000079   0.0000626   0.0000316  -0.0000242  -0.0000239   0.0000060
           37          38          39
    1  -0.0000012  -0.0000212   0.0000028
    2  -0.0000115  -0.0000467  -0.0000021
    3   0.0000302  -0.0000044  -0.0000117
 Max gradient component =       2.599E-04
 RMS gradient           =       7.392E-05
 Gradient time:  CPU 3289.46 s  wall 825.44 s
 Geometry Optimization Parameters
   NAtoms,    NIC,     NZ,  NCons,   NDum,   NFix, NCnnct, MaxDiis
       39     293       0       0       0       0       0       0

 Cartesian Hessian Update
 Hessian Updated using BFGS Update


** GEOMETRY OPTIMIZATION IN DELOCALIZED INTERNAL COORDINATES **
   Searching for a Minimum

   Optimization Cycle:   2

                       Coordinates (Angstroms)
     ATOM                X               Y               Z
      1  C         7.6789970601    0.3421391196   -0.1976894240
      2  C         6.9938797174    1.5142273019    0.0783397724
      3  C         6.9409503445   -0.8057061165   -0.4403027517
      4  C         5.6142724799    1.4896194900    0.1078375805
      5  N         5.6153630455   -0.8447091567   -0.4110702954
      6  C         4.9620630823    0.2821586650   -0.1364379221
      7  C         3.4787572405    0.2382438650   -0.1059900623
      8  N         2.8447762901    1.3636559610   -0.2874541378
      9  C         2.7202641861   -0.9555907366    0.1285878693
     10  C         1.4917186132    1.4368446049   -0.2730607028
     11  N         3.1721807109   -2.1831125720    0.3907331276
     12  C         1.2900261539   -0.8735293825    0.1346012828
     13  C         0.6358915137    0.3797531712   -0.0705515866
     14  S         1.8835366782   -3.1149138035    0.5905470032
     15  N         0.6990427529   -2.0422078833    0.3767021964
     16  C        -0.8106655301    0.5370109345   -0.0371705214
     17  S        -1.8931534032   -0.7983619162   -0.0663162293
     18  C        -1.5582156406    1.7122402549    0.0354338004
     19  C        -3.3129881532    0.1447427316   -0.0145511027
     20  N        -1.0554360065    2.9781409005    0.0864669683
     21  C        -2.9713828600    1.4902232778    0.0523694983
     22  C        -4.6338633884   -0.4441260209   -0.0230732064
     23  C        -1.9300551074    3.9345392879    0.1446141558
     24  N        -3.8593549643    2.5186891463    0.1156083924
     25  C        -5.8013152304    0.1051461201    0.4319357345
     26  S        -4.9186457910   -2.0311588406   -0.6621256277
     27  C        -3.3402788462    3.7068877711    0.1585654297
     28  C        -6.9151807405   -0.7529760538    0.2754456536
     29  C        -6.5893347407   -1.9428253833   -0.2948302124
     30  H         8.7587464137    0.3157134909   -0.2255658855
     31  H         7.5284737182    2.4350417875    0.2694318144
     32  H         7.4375649982   -1.7414296408   -0.6707152294
     33  H         5.0317004017    2.3749882984    0.3115041164
     34  H         1.0862240772    2.4254136297   -0.4168659551
     35  H        -1.5533081778    4.9507352566    0.1791576873
     36  H        -5.8419136997    1.0953414160    0.8539493755
     37  H        -4.0205381940    4.5497015295    0.2101737728
     38  H        -7.9163547660   -0.4925989334    0.5837961549
     39  H        -7.2410425408   -2.7683891673   -0.5244574018
   Point Group: c1    Number of degrees of freedom:   111


   Energy is  -2291.195695232

 Hessian Updated using BFGS Update

109 Hessian modes will be used to form the next step
  Hessian Eigenvalues:
     0.009637    0.012671    0.015725    0.016373    0.016894    0.017402
     0.017521    0.018547    0.018903    0.018959    0.019108    0.019379
     0.019647    0.019882    0.020262    0.020714    0.021356    0.021579
     0.021877    0.022016    0.022237    0.022681    0.023044    0.023557
     0.023709    0.023847    0.024121    0.024253    0.024367    0.024481
     0.024721    0.024918    0.024964    0.025136    0.026037    0.029866
     0.158198    0.159984    0.159993    0.159994    0.159998    0.159999
     0.159999    0.160000    0.160464    0.219999    0.220794    0.223135
     0.224240    0.232471    0.237766    0.242903    0.243350    0.244597
     0.249687    0.249925    0.249929    0.249967    0.249973    0.249975
     0.249986    0.249991    0.249992    0.249997    0.312347    0.325704
     0.332230    0.334145    0.340699    0.344321    0.354724    0.354813
     0.355045    0.357826    0.359411    0.360675    0.360888    0.362513
     0.363481    0.364077    0.372803    0.375381    0.386921    0.388524
     0.391608    0.407194    0.413379    0.419777    0.432411    0.441833
     0.461462    0.466850    0.470208    0.473408    0.482821    0.484834
     0.485547    0.493108    0.503383    0.517030    0.519396    0.525290
     0.558166    0.573936    0.582425    0.590602    0.639889    0.655309
     0.664381

 Minimum Search - Taking Simple RFO Step
 Searching for Lamda that Minimizes Along All modes
 Value Taken    Lamda =  -0.00001080
 Step Taken.  Stepsize is  0.020897

                             Maximum     Tolerance    Cnvgd?
         Gradient           0.001164      0.000300      NO
         Displacement       0.007495      0.001200      NO
         Energy change     -0.000008      0.000001      NO


 New Cartesian Coordinates Obtained by Inverse Iteration

 Displacement from previous Coordinates is:  0.106844
 ----------------------------------------------------------------
             Standard Nuclear Orientation (Angstroms)
    I     Atom           X                Y                Z
 ----------------------------------------------------------------
    1      C       7.6793216422     0.3350004038    -0.2070030442
    2      C       6.9981287275     1.5084978978     0.0728228645
    3      C       6.9376211883    -0.8110702260    -0.4467869346
    4      C       5.6186129804     1.4871246842     0.1080591032
    5      N       5.6120334964    -0.8467949739    -0.4131475161
    6      C       4.9626307538     0.2815938928    -0.1356242242
    7      C       3.4794366121     0.2409714306    -0.1012913568
    8      N       2.8466673042     1.3672412390    -0.2815758071
    9      C       2.7200229523    -0.9516142224     0.1353058920
   10      C       1.4936739191     1.4418873415    -0.2654281071
   11      N       3.1709850451    -2.1797377971     0.3962477163
   12      C       1.2899952783    -0.8681302977     0.1424765705
   13      C       0.6368045891     0.3856241060    -0.0622486547
   14      S       1.8816351329    -3.1093678699     0.6014474253
   15      N       0.6979654007    -2.0361297151     0.3854527341
   16      C      -0.8098444450     0.5422726797    -0.0301337041
   17      S      -1.8899700853    -0.7950819933    -0.0570519003
   18      C      -1.5595480726     1.7165382683     0.0390732515
   19      C      -3.3115692022     0.1456933267    -0.0128143804
   20      N      -1.0601470433     2.9838753551     0.0908758059
   21      C      -2.9723434604     1.4917355384     0.0528103907
   22      C      -4.6314709384    -0.4451756069    -0.0242360018
   23      C      -1.9372639623     3.9382270543     0.1455482986
   24      N      -3.8630980771     2.5180981378     0.1110507874
   25      C      -5.8001787007     0.1009581044     0.4313516089
   26      S      -4.9138529634    -2.0294916282    -0.6707471415
   27      C      -3.3470409559     3.7075540134     0.1541656220
   28      C      -6.9128057152    -0.7581239762     0.2707767068
   29      C      -6.5845579635    -1.9456128160    -0.3030880386
   30      H       8.7588626195     0.3062763299    -0.2400768768
   31      H       7.5357797048     2.4278160260     0.2625906865
   32      H       7.4311468158    -1.7477915170    -0.6797719463
   33      H       5.0391425356     2.3738013531     0.3148572330
   34      H       1.0889746701     2.4305896350    -0.4103598668
   35      H      -1.5632575762     4.9553680889     0.1816586910
   36      H      -5.8424956286     1.0891225662     0.8579686292
   37      H      -4.0293551705     4.5490124444     0.2011348909
   38      H      -7.9144066061    -0.4999075652     0.5795773223
   39      H      -7.2348331041    -2.7712873084    -0.5362935972
 ----------------------------------------------------------------
 Molecular Point Group                 C1    NOp =  1
 Largest Abelian Subgroup              C1    NOp =  1
 Nuclear Repulsion Energy =  2929.8548858330 hartrees
 There are      110 alpha and      110 beta electrons
 Applying Cartesian multipole field
    Component          Value
    ---------          -----
     (2,0,0)        1.00000E-12
     (0,2,0)        2.00000E-11
     (0,0,2)       -3.00000E-10
 Nucleus-field energy     =     0.0000000439 hartrees
 Requested basis set is cc-pVTZ
 There are 356 shells and 1022 basis functions
 A cutoff of  1.0D-11 yielded  30928 shell pairs
 There are    243950 function pairs (    318401 Cartesian)
 Smallest overlap matrix eigenvalue = 2.55E-05
 Guess MOs from SCF MO coefficient file
 Reading MOs from coefficient file
 Reading MOs from coefficient file
 Long-range K will be added via erf
 Coulomb attenuation parameter = 0.2 bohr**(-1)
 A restricted hybrid HF-DFT SCF calculation will be
 performed using Pulay DIIS extrapolation
 Exchange:     0.2220 Hartree-Fock + 1.0000 wB97X-D + LR-HF
 Correlation:  1.0000 wB97X-D
 Using SG-1 standard quadrature grid
 Dispersion:   Grimme D
 SCF converges when DIIS error is below 1.0E-08
 Geometry optimization detected.  Setting ReadMinima to 0
 Setting SaveMinima to 0
 using 4 threads for integral computing 
 using 4 threads for integral computing 
 K construction time:  CPU 1294.68 s  wall 325.93 s
 -------------------------------------------------------
 OpenMP BLAS3 based DFT computing Module                
 Release: version 1.0, May 2013, Q-Chem Inc. Pittsburgh 
 -------------------------------------------------------
 ---------------------------------------
  Cycle       Energy         DIIS Error
 ---------------------------------------
    1   -2291.1960848858      5.19E-05
 K construction time:  CPU 1300.57 s  wall 327.34 s
    2   -2291.1956885314      5.39E-06
 K construction time:  CPU 833.34 s  wall 209.58 s
    3   -2291.1956952224      4.23E-06
 K construction time:  CPU 779.88 s  wall 196.04 s
    4   -2291.1956971278      2.23E-06
 K construction time:  CPU 735.29 s  wall 184.76 s
    5   -2291.1956978295      8.63E-07
 K construction time:  CPU 654.93 s  wall 164.50 s
    6   -2291.1956979352      3.13E-07
 K construction time:  CPU 588.44 s  wall 147.76 s
    7   -2291.1956979520      1.08E-07
 K construction time:  CPU 522.40 s  wall 131.11 s
    8   -2291.1956979537      5.21E-08
 K construction time:  CPU 477.46 s  wall 119.85 s
    9   -2291.1956979536      2.21E-08
 K construction time:  CPU 397.63 s  wall 99.72 s
   10   -2291.1956979497      9.40E-09 Convergence criterion met
 ---------------------------------------
 SCF time:  CPU 10137.97 s  wall 2560.37 s
 SCF   energy in the final basis set = -2291.1956979497
 Total energy in the final basis set = -2291.1956979497
 
 --------------------------------------------------------------
 
                    Orbital Energies (a.u.)
 --------------------------------------------------------------
 
 Alpha MOs
 -- Occupied --
-89.153 -89.107 -89.087 -14.482 -14.479 -14.463 -14.463 -14.445
-14.434 -10.355 -10.352 -10.351 -10.346 -10.344 -10.344 -10.342
-10.342 -10.338 -10.336 -10.335 -10.330 -10.326 -10.324 -10.320
-10.309 -10.301 -10.298 -10.295 -10.293  -8.158  -8.116  -8.097
 -6.107  -6.102  -6.101  -6.064  -6.061  -6.059  -6.046  -6.042
 -6.039  -1.143  -1.102  -1.068  -1.048  -1.030  -1.013  -1.003
 -0.986  -0.925  -0.911  -0.896  -0.879  -0.869  -0.853  -0.838
 -0.812  -0.777  -0.772  -0.748  -0.738  -0.731  -0.716  -0.711
 -0.672  -0.655  -0.648  -0.629  -0.628  -0.620  -0.607  -0.603
 -0.587  -0.576  -0.568  -0.560  -0.557  -0.548  -0.543  -0.526
 -0.512  -0.507  -0.501  -0.498  -0.493  -0.492  -0.485  -0.484
 -0.473  -0.466  -0.462  -0.461  -0.451  -0.443  -0.429  -0.427
 -0.418  -0.411  -0.392  -0.377  -0.372  -0.359  -0.357  -0.351
 -0.343  -0.339  -0.334  -0.334  -0.320  -0.264
 -- Virtual --
 -0.055  -0.024   0.024   0.032   0.042   0.051   0.071   0.073
  0.085   0.089   0.117   0.123   0.124   0.127   0.132   0.136
  0.150   0.153   0.156   0.164   0.169   0.176   0.183   0.190
  0.199   0.205   0.212   0.216   0.222   0.232   0.244   0.248
  0.258   0.267   0.268   0.277   0.283   0.287   0.294   0.294
  0.300   0.304   0.308   0.314   0.318   0.324   0.324   0.331
  0.333   0.339   0.342   0.346   0.351   0.353   0.355   0.357
  0.364   0.369   0.371   0.379   0.382   0.384   0.386   0.390
  0.392   0.394   0.397   0.400   0.402   0.407   0.411   0.411
  0.414   0.419   0.421   0.427   0.431   0.433   0.436   0.441
  0.445   0.447   0.449   0.455   0.458   0.461   0.463   0.464
  0.468   0.474   0.475   0.478   0.484   0.484   0.487   0.493
  0.494   0.501   0.504   0.509   0.511   0.516   0.518   0.520
  0.526   0.531   0.533   0.536   0.538   0.542   0.550   0.557
  0.558   0.564   0.567   0.576   0.579   0.590   0.596   0.601
  0.607   0.607   0.609   0.616   0.618   0.626   0.635   0.641
  0.644   0.647   0.653   0.655   0.662   0.666   0.668   0.676
  0.679   0.685   0.695   0.698   0.702   0.708   0.712   0.719
  0.725   0.727   0.732   0.734   0.740   0.743   0.748   0.758
  0.759   0.766   0.769   0.775   0.779   0.780   0.788   0.790
  0.792   0.799   0.803   0.807   0.810   0.820   0.823   0.826
  0.829   0.834   0.840   0.843   0.844   0.851   0.852   0.858
  0.862   0.868   0.870   0.875   0.882   0.888   0.899   0.905
  0.908   0.916   0.918   0.922   0.926   0.930   0.933   0.942
  0.947   0.951   0.954   0.957   0.961   0.965   0.968   0.971
  0.975   0.983   0.988   0.998   1.000   1.007   1.014   1.019
  1.020   1.030   1.031   1.038   1.050   1.052   1.057   1.058
  1.066   1.067   1.078   1.085   1.087   1.091   1.095   1.101
  1.106   1.107   1.112   1.117   1.122   1.129   1.136   1.141
  1.150   1.154   1.163   1.169   1.176   1.183   1.191   1.195
  1.205   1.210   1.217   1.218   1.231   1.234   1.236   1.244
  1.255   1.257   1.265   1.273   1.279   1.292   1.299   1.303
  1.311   1.312   1.321   1.329   1.339   1.343   1.350   1.355
  1.356   1.367   1.372   1.377   1.378   1.385   1.387   1.392
  1.397   1.406   1.414   1.420   1.425   1.429   1.437   1.438
  1.446   1.448   1.452   1.460   1.468   1.476   1.480   1.482
  1.490   1.494   1.503   1.509   1.513   1.513   1.527   1.536
  1.543   1.563   1.568   1.569   1.578   1.583   1.586   1.594
  1.605   1.611   1.616   1.626   1.631   1.641   1.643   1.649
  1.657   1.659   1.666   1.667   1.674   1.690   1.694   1.702
  1.705   1.711   1.719   1.727   1.728   1.735   1.741   1.746
  1.756   1.771   1.776   1.783   1.790   1.797   1.804   1.808
  1.819   1.831   1.844   1.855   1.869   1.877   1.882   1.886
  1.896   1.904   1.911   1.916   1.926   1.936   1.944   1.952
  1.958   1.971   1.973   1.983   1.987   1.995   2.001   2.008
  2.014   2.019   2.034   2.039   2.042   2.053   2.063   2.070
  2.075   2.093   2.097   2.104   2.109   2.113   2.119   2.129
  2.139   2.153   2.163   2.176   2.178   2.182   2.187   2.198
  2.202   2.209   2.215   2.220   2.235   2.243   2.246   2.252
  2.262   2.278   2.287   2.294   2.295   2.300   2.313   2.316
  2.319   2.328   2.338   2.345   2.350   2.368   2.371   2.375
  2.387   2.393   2.396   2.402   2.409   2.416   2.423   2.427
  2.436   2.442   2.453   2.456   2.461   2.466   2.473   2.482
  2.487   2.496   2.507   2.514   2.522   2.528   2.530   2.533
  2.538   2.544   2.549   2.553   2.559   2.567   2.588   2.603
  2.609   2.614   2.624   2.633   2.638   2.642   2.650   2.658
  2.660   2.668   2.672   2.683   2.687   2.697   2.714   2.723
  2.729   2.733   2.742   2.759   2.766   2.773   2.774   2.780
  2.783   2.787   2.791   2.805   2.806   2.813   2.820   2.830
  2.836   2.836   2.846   2.853   2.863   2.870   2.875   2.879
  2.884   2.888   2.894   2.908   2.916   2.921   2.928   2.935
  2.941   2.943   2.947   2.950   2.954   2.967   2.973   2.980
  2.988   2.990   3.001   3.006   3.006   3.012   3.014   3.021
  3.023   3.033   3.037   3.039   3.043   3.054   3.056   3.062
  3.065   3.069   3.072   3.076   3.080   3.082   3.084   3.086
  3.093   3.099   3.100   3.105   3.116   3.121   3.125   3.129
  3.135   3.140   3.148   3.157   3.159   3.165   3.167   3.168
  3.173   3.179   3.187   3.193   3.197   3.199   3.202   3.209
  3.212   3.217   3.219   3.222   3.225   3.233   3.236   3.240
  3.244   3.245   3.248   3.258   3.262   3.265   3.270   3.272
  3.279   3.284   3.288   3.291   3.297   3.299   3.306   3.308
  3.309   3.312   3.318   3.323   3.324   3.333   3.337   3.340
  3.352   3.358   3.363   3.369   3.377   3.383   3.388   3.395
  3.400   3.401   3.408   3.413   3.419   3.421   3.424   3.434
  3.441   3.444   3.445   3.456   3.461   3.464   3.475   3.476
  3.480   3.484   3.490   3.498   3.508   3.511   3.514   3.519
  3.524   3.530   3.535   3.558   3.561   3.566   3.570   3.584
  3.584   3.597   3.610   3.621   3.621   3.634   3.641   3.644
  3.653   3.669   3.676   3.687   3.688   3.693   3.700   3.712
  3.713   3.721   3.731   3.735   3.739   3.750   3.753   3.756
  3.770   3.774   3.781   3.789   3.790   3.799   3.802   3.811
  3.816   3.831   3.835   3.840   3.852   3.857   3.874   3.878
  3.889   3.904   3.906   3.911   3.915   3.922   3.928   3.931
  3.934   3.936   3.939   3.952   3.957   3.959   3.967   3.982
  3.984   3.992   3.998   4.006   4.018   4.024   4.029   4.037
  4.045   4.059   4.069   4.072   4.077   4.091   4.098   4.103
  4.114   4.118   4.126   4.145   4.153   4.157   4.169   4.173
  4.185   4.193   4.200   4.204   4.206   4.218   4.221   4.227
  4.231   4.234   4.238   4.249   4.254   4.263   4.268   4.285
  4.286   4.293   4.299   4.313   4.322   4.323   4.329   4.337
  4.348   4.354   4.358   4.363   4.375   4.378   4.392   4.395
  4.406   4.410   4.426   4.433   4.437   4.443   4.447   4.452
  4.460   4.481   4.494   4.498   4.515   4.523   4.526   4.531
  4.546   4.554   4.563   4.572   4.583   4.591   4.602   4.608
  4.624   4.642   4.645   4.650   4.661   4.678   4.681   4.691
  4.714   4.725   4.733   4.743   4.755   4.773   4.778   4.793
  4.795   4.807   4.810   4.817   4.826   4.844   4.847   4.867
  4.874   4.879   4.887   4.892   4.902   4.916   4.922   4.937
  4.938   4.949   4.958   4.962   4.972   4.978   4.986   4.994
  4.999   5.004   5.010   5.017   5.033   5.046   5.047   5.055
  5.072   5.083   5.097   5.100   5.107   5.114   5.117   5.131
  5.137   5.144   5.151   5.156   5.172   5.176   5.184   5.192
  5.212   5.221   5.243   5.249   5.268   5.303   5.307   5.315
  5.321   5.344   5.352   5.377   5.384   5.404   5.424   5.429
  5.453   5.466   5.478   5.490   5.497   5.500   5.530   5.541
  5.562   5.576   5.577   5.591   5.599   5.610   5.627   5.647
  5.674   5.697   5.721   5.723   5.745   5.753   5.755   5.791
  5.799   5.832   5.839   5.858   5.880   5.900   5.913   5.927
  5.952   5.977   6.017   6.044   6.087   6.133   6.156   6.184
  6.204   6.244   6.254   6.302   6.323   6.354   6.383   6.431
  6.446   6.491   6.639   6.874   6.988   7.079   8.069   8.889
  9.816  10.200  10.665  11.140  11.262  11.681  12.018  12.134
 12.415  12.636  12.766  12.835  12.855  12.964  13.084  13.177
 13.330  13.427  13.553  14.166  14.385  14.663  15.066  15.103
 --------------------------------------------------------------
 
          Ground-State Mulliken Net Atomic Charges

     Atom                 Charge (a.u.)
  ----------------------------------------
      1 C                    -0.088319
      2 C                    -0.131298
      3 C                    -0.081073
      4 C                    -0.120441
      5 N                    -0.145829
      6 C                     0.083413
      7 C                     0.099261
      8 N                    -0.177859
      9 C                    -0.015893
     10 C                    -0.083830
     11 N                    -0.218858
     12 C                     0.050653
     13 C                     0.059818
     14 S                     0.407323
     15 N                    -0.306556
     16 C                    -0.072106
     17 S                     0.178056
     18 C                     0.060212
     19 C                    -0.055080
     20 N                    -0.170469
     21 C                     0.063116
     22 C                    -0.011801
     23 C                    -0.042247
     24 N                    -0.160929
     25 C                    -0.137404
     26 S                     0.104182
     27 C                    -0.046870
     28 C                    -0.158188
     29 C                    -0.182298
     30 H                     0.129356
     31 H                     0.121188
     32 H                     0.120749
     33 H                     0.139059
     34 H                     0.136560
     35 H                     0.124357
     36 H                     0.133253
     37 H                     0.129321
     38 H                     0.131256
     39 H                     0.136214
  ----------------------------------------
  Sum of atomic charges =     0.000000

 -----------------------------------------------------------------
                    Cartesian Multipole Moments
 -----------------------------------------------------------------
    Charge (ESU x 10^10)
                 0.0000
    Dipole Moment (Debye)
         X      -0.3471      Y       1.5569      Z       0.7691
       Tot       1.7709
    Quadrupole Moments (Debye-Ang)
        XX    -151.6491     XY       3.4310     YY    -164.8669
        XZ       0.1084     YZ       2.5752     ZZ    -186.8108
    Octopole Moments (Debye-Ang^2)
       XXX     104.7631    XXY      14.6707    XYY     -38.5247
       YYY      38.4045    XXZ      15.1626    XYZ      -6.6918
       YYZ       5.0828    XZZ       1.0214    YZZ      -7.7718
       ZZZ       2.1449
    Hexadecapole Moments (Debye-Ang^3)
      XXXX  -15947.2102   XXXY     570.4981   XXYY   -3535.5176
      XYYY    -160.5677   YYYY   -3425.8319   XXXZ    -127.9382
      XXYZ     138.5590   XYYZ      38.3473   YYYZ      20.3146
      XXZZ   -3457.6978   XYZZ     -29.0838   YYZZ    -725.0431
      XZZZ      10.5132   YZZZ      -5.0568   ZZZZ    -323.9343
 -----------------------------------------------------------------
 Calculating analytic gradient of the SCF energy
 K construction time:  CPU 2730.72 s  wall 684.50 s
 Gradient of SCF Energy
            1           2           3           4           5           6
    1   0.0000318  -0.0000407  -0.0000611   0.0000103   0.0000607  -0.0000248
    2  -0.0000049  -0.0000273  -0.0000006   0.0000178   0.0000106  -0.0000467
    3   0.0000400   0.0000568  -0.0000647   0.0000100   0.0000299  -0.0000338
            7           8           9          10          11          12
    1   0.0000497  -0.0000444   0.0000814   0.0000462  -0.0000074   0.0000103
    2   0.0000467  -0.0000574   0.0000406  -0.0000100  -0.0000562   0.0000035
    3   0.0000728   0.0000203   0.0000622   0.0000325  -0.0002331   0.0000298
           13          14          15          16          17          18
    1   0.0000155  -0.0000191  -0.0001030  -0.0000007   0.0000921   0.0000719
    2   0.0000511   0.0000825  -0.0000077  -0.0001112   0.0000761  -0.0000070
    3   0.0001321   0.0002318  -0.0002430  -0.0001136   0.0000296   0.0000808
           19          20          21          22          23          24
    1  -0.0000737  -0.0000959   0.0000409   0.0001149  -0.0000296   0.0000718
    2   0.0000267   0.0000045  -0.0000277  -0.0000239   0.0000508   0.0000178
    3  -0.0001078   0.0000426   0.0000936  -0.0000326  -0.0000608   0.0000124
           25          26          27          28          29          30
    1  -0.0000838  -0.0000158  -0.0000377  -0.0000706   0.0000064  -0.0000091
    2   0.0000735   0.0000077   0.0000107  -0.0000510  -0.0000141   0.0000067
    3  -0.0001399   0.0000509   0.0000116  -0.0001100   0.0000288  -0.0000507
           31          32          33          34          35          36
    1  -0.0000145   0.0000388   0.0000246   0.0000242  -0.0000790   0.0000114
    2  -0.0000000  -0.0000037  -0.0000040  -0.0000755   0.0000044  -0.0000363
    3   0.0000016   0.0000558   0.0000445  -0.0001049   0.0000319   0.0000990
           37          38          39
    1   0.0000004  -0.0000104   0.0000180
    2   0.0000104   0.0000100   0.0000134
    3   0.0000056   0.0000126  -0.0000245
 Max gradient component =       2.430E-04
 RMS gradient           =       6.475E-05
 Gradient time:  CPU 3236.07 s  wall 812.02 s
 Geometry Optimization Parameters
   NAtoms,    NIC,     NZ,  NCons,   NDum,   NFix, NCnnct, MaxDiis
       39     293       0       0       0       0       0       0

 Cartesian Hessian Update
 Hessian Updated using BFGS Update


** GEOMETRY OPTIMIZATION IN DELOCALIZED INTERNAL COORDINATES **
   Searching for a Minimum

   Optimization Cycle:   3

                       Coordinates (Angstroms)
     ATOM                X               Y               Z
      1  C         7.6793216422    0.3350004038   -0.2070030442
      2  C         6.9981287275    1.5084978978    0.0728228645
      3  C         6.9376211883   -0.8110702260   -0.4467869346
      4  C         5.6186129804    1.4871246842    0.1080591032
      5  N         5.6120334964   -0.8467949739   -0.4131475161
      6  C         4.9626307538    0.2815938928   -0.1356242242
      7  C         3.4794366121    0.2409714306   -0.1012913568
      8  N         2.8466673042    1.3672412390   -0.2815758071
      9  C         2.7200229523   -0.9516142224    0.1353058920
     10  C         1.4936739191    1.4418873415   -0.2654281071
     11  N         3.1709850451   -2.1797377971    0.3962477163
     12  C         1.2899952783   -0.8681302977    0.1424765705
     13  C         0.6368045891    0.3856241060   -0.0622486547
     14  S         1.8816351329   -3.1093678699    0.6014474253
     15  N         0.6979654007   -2.0361297151    0.3854527341
     16  C        -0.8098444450    0.5422726797   -0.0301337041
     17  S        -1.8899700853   -0.7950819933   -0.0570519003
     18  C        -1.5595480726    1.7165382683    0.0390732515
     19  C        -3.3115692022    0.1456933267   -0.0128143804
     20  N        -1.0601470433    2.9838753551    0.0908758059
     21  C        -2.9723434604    1.4917355384    0.0528103907
     22  C        -4.6314709384   -0.4451756069   -0.0242360018
     23  C        -1.9372639623    3.9382270543    0.1455482986
     24  N        -3.8630980771    2.5180981378    0.1110507874
     25  C        -5.8001787007    0.1009581044    0.4313516089
     26  S        -4.9138529634   -2.0294916282   -0.6707471415
     27  C        -3.3470409559    3.7075540134    0.1541656220
     28  C        -6.9128057152   -0.7581239762    0.2707767068
     29  C        -6.5845579635   -1.9456128160   -0.3030880386
     30  H         8.7588626195    0.3062763299   -0.2400768768
     31  H         7.5357797048    2.4278160260    0.2625906865
     32  H         7.4311468158   -1.7477915170   -0.6797719463
     33  H         5.0391425356    2.3738013531    0.3148572330
     34  H         1.0889746701    2.4305896350   -0.4103598668
     35  H        -1.5632575762    4.9553680889    0.1816586910
     36  H        -5.8424956286    1.0891225662    0.8579686292
     37  H        -4.0293551705    4.5490124444    0.2011348909
     38  H        -7.9144066061   -0.4999075652    0.5795773223
     39  H        -7.2348331041   -2.7712873084   -0.5362935972
   Point Group: c1    Number of degrees of freedom:   111


   Energy is  -2291.195697950

 Hessian Updated using BFGS Update

110 Hessian modes will be used to form the next step
[...]
     13 C                    -0.061018
     14 S                     0.606378
     15 N                    -0.496267
     16 C                    -0.184674
     17 S                     0.307326
     18 C                     0.150123
     19 C                    -0.206508
     20 N                    -0.270666
     21 C                     0.146201
     22 C                     0.023871
     23 C                     0.076375
     24 N                    -0.264568
     25 C                    -0.167341
     26 S                     0.172399
     27 C                     0.060094
     28 C                    -0.084012
     29 C                    -0.276267
     30 H                     0.120625
     31 H                     0.099336
     32 H                     0.063755
     33 H                     0.124430
     34 H                     0.066945
     35 H                     0.080310
     36 H                     0.116616
     37 H                     0.081854
     38 H                     0.114587
     39 H                     0.149684
  ---------------------------------------- 
  Sum of atomic charges =    -0.000015

Performing Hirshfeld population analysis.
Hirshfeld: reading atomic densities from disk.
Hirshfeld: performing integration.
Hirshfeld: integration completed in 162.18 sec.

          Hirshfeld Atomic Charges         

     Atom                 Charge (a.u.)    
  ---------------------------------------- 
      1 C                    -0.226509
      2 C                     0.013333
      3 C                     0.178269
      4 C                    -0.241861
      5 N                    -0.363817
      6 C                     0.254086
      7 C                     0.193121
      8 N                    -0.348421
      9 C                     0.087417
     10 C                     0.104894
     11 N                    -0.404452
     12 C                     0.204420
     13 C                    -0.061224
     14 S                     0.606437
     15 N                    -0.496439
     16 C                    -0.184905
     17 S                     0.307759
     18 C                     0.150246
     19 C                    -0.207505
     20 N                    -0.270772
     21 C                     0.146673
     22 C                     0.024707
     23 C                     0.076447
     24 N                    -0.264686
     25 C                    -0.168395
     26 S                     0.172454
     27 C                     0.060110
     28 C                    -0.082959
     29 C                    -0.276988
     30 H                     0.120937
     31 H                     0.099120
     32 H                     0.063604
     33 H                     0.124760
     34 H                     0.066902
     35 H                     0.080292
     36 H                     0.116847
     37 H                     0.081851
     38 H                     0.114384
     39 H                     0.149848
  ---------------------------------------- 
  Sum of atomic charges =    -0.000015

Performing Hirshfeld population analysis.
Hirshfeld: reading atomic densities from disk.
Hirshfeld: performing integration.
Hirshfeld: integration completed in 162.62 sec.

          Hirshfeld Atomic Charges         

     Atom                 Charge (a.u.)    
  ---------------------------------------- 
      1 C                    -0.227606
      2 C                     0.014392
      3 C                     0.179030
      4 C                    -0.242988
      5 N                    -0.364277
      6 C                     0.254797
      7 C                     0.193019
      8 N                    -0.348447
      9 C                     0.087338
     10 C                     0.105054
     11 N                    -0.404427
     12 C                     0.204637
     13 C                    -0.061384
     14 S                     0.606477
     15 N                    -0.496566
     16 C                    -0.185069
     17 S                     0.308098
     18 C                     0.150324
     19 C                    -0.208305
     20 N                    -0.270847
     21 C                     0.147057
     22 C                     0.025396
     23 C                     0.076499
     24 N                    -0.264780
     25 C                    -0.169292
     26 S                     0.172501
     27 C                     0.060122
     28 C                    -0.082058
     29 C                    -0.277592
     30 H                     0.121196
     31 H                     0.098945
     32 H                     0.063479
     33 H                     0.125031
     34 H                     0.066869
     35 H                     0.080279
     36 H                     0.117045
     37 H                     0.081849
     38 H                     0.114208
     39 H                     0.149983
  ---------------------------------------- 
  Sum of atomic charges =    -0.000015

Performing Hirshfeld population analysis.
Hirshfeld: reading atomic densities from disk.
Hirshfeld: performing integration.
Hirshfeld: integration completed in 163.43 sec.

          Hirshfeld Atomic Charges         

     Atom                 Charge (a.u.)    
  ---------------------------------------- 
      1 C                    -0.228511
      2 C                     0.015258
      3 C                     0.179658
      4 C                    -0.243913
      5 N                    -0.364657
      6 C                     0.255385
      7 C                     0.192926
      8 N                    -0.348458
      9 C                     0.087280
     10 C                     0.105173
     11 N                    -0.404406
     12 C                     0.204801
     13 C                    -0.061510
     14 S                     0.606503
     15 N                    -0.496660
     16 C                    -0.185184
     17 S                     0.308362
     18 C                     0.150370
     19 C                    -0.208950
     20 N                    -0.270899
     21 C                     0.147371
     22 C                     0.025965
     23 C                     0.076536
     24 N                    -0.264855
     25 C                    -0.170055
     26 S                     0.172541
     27 C                     0.060131
     28 C                    -0.081288
     29 C                    -0.278099
     30 H                     0.121411
     31 H                     0.098804
     32 H                     0.063376
     33 H                     0.125254
     34 H                     0.066844
     35 H                     0.080270
     36 H                     0.117212
     37 H                     0.081848
     38 H                     0.114055
     39 H                     0.150095
  ---------------------------------------- 
  Sum of atomic charges =    -0.000015

Performing Hirshfeld population analysis.
Hirshfeld: reading atomic densities from disk.
Hirshfeld: performing integration.
Hirshfeld: integration completed in 164.18 sec.

          Hirshfeld Atomic Charges         

     Atom                 Charge (a.u.)    
  ---------------------------------------- 
      1 C                    -0.229256
      2 C                     0.015967
      3 C                     0.180175
      4 C                    -0.244671
      5 N                    -0.364970
      6 C                     0.255870
      7 C                     0.192842
      8 N                    -0.348461
      9 C                     0.087239
     10 C                     0.105263
     11 N                    -0.404387
     12 C                     0.204925
     13 C                    -0.061609
     14 S                     0.606522
     15 N                    -0.496730
     16 C                    -0.185264
     17 S                     0.308569
     18 C                     0.150395
     19 C                    -0.209470
     20 N                    -0.270935
     21 C                     0.147628
     22 C                     0.026435
     23 C                     0.076563
     24 N                    -0.264915
     25 C                    -0.170702
     26 S                     0.172576
     27 C                     0.060138
     28 C                    -0.080631
     29 C                    -0.278526
     30 H                     0.121588
     31 H                     0.098689
     32 H                     0.063291
     33 H                     0.125436
     34 H                     0.066825
     35 H                     0.080263
     36 H                     0.117355
     37 H                     0.081848
     38 H                     0.113924
     39 H                     0.150187
  ---------------------------------------- 
  Sum of atomic charges =    -0.000015

Performing Hirshfeld population analysis.
Hirshfeld: reading atomic densities from disk.
Hirshfeld: performing integration.
Hirshfeld: integration completed in 164.38 sec.

          Hirshfeld Atomic Charges         

     Atom                 Charge (a.u.)    
  ---------------------------------------- 
      1 C                    -0.229869
      2 C                     0.016548
      3 C                     0.180602
      4 C                    -0.245294
      5 N                    -0.365229
      6 C                     0.256271
      7 C                     0.192768
      8 N                    -0.348457
      9 C                     0.087211
     10 C                     0.105329
     11 N                    -0.404372
     12 C                     0.205018
     13 C                    -0.061686
     14 S                     0.606534
     15 N                    -0.496783
     16 C                    -0.185318
     17 S                     0.308732
     18 C                     0.150405
     19 C                    -0.209890
     20 N                    -0.270959
     21 C                     0.147837
     22 C                     0.026823
     23 C                     0.076582
     24 N                    -0.264963
     25 C                    -0.171251
     26 S                     0.172606
     27 C                     0.060144
     28 C                    -0.080071
     29 C                    -0.278886
     30 H                     0.121734
     31 H                     0.098595
     32 H                     0.063221
     33 H                     0.125586
     34 H                     0.066810
     35 H                     0.080258
     36 H                     0.117476
     37 H                     0.081848
     38 H                     0.113812
     39 H                     0.150264
  ---------------------------------------- 
  Sum of atomic charges =    -0.000015

Performing Hirshfeld population analysis.
Hirshfeld: reading atomic densities from disk.
Hirshfeld: performing integration.
Hirshfeld: integration completed in 177.14 sec.

          Hirshfeld Atomic Charges         

     Atom                 Charge (a.u.)    
  ---------------------------------------- 
      1 C                    -0.230374
      2 C                     0.017024
      3 C                     0.180954
      4 C                    -0.245805
      5 N                    -0.365443
      6 C                     0.256602
      7 C                     0.192702
      8 N                    -0.348450
      9 C                     0.087191
     10 C                     0.105379
     11 N                    -0.404360
     12 C                     0.205088
     13 C                    -0.061748
     14 S                     0.606543
     15 N                    -0.496822
     16 C                    -0.185355
     17 S                     0.308860
     18 C                     0.150406
     19 C                    -0.210230
     20 N                    -0.270974
     21 C                     0.148009
     22 C                     0.027144
     23 C                     0.076595
     24 N                    -0.265002
     25 C                    -0.171716
     26 S                     0.172633
     27 C                     0.060149
     28 C                    -0.079595
     29 C                    -0.279191
     30 H                     0.121855
     31 H                     0.098519
     32 H                     0.063163
     33 H                     0.125708
     34 H                     0.066799
     35 H                     0.080254
     36 H                     0.117579
     37 H                     0.081848
     38 H                     0.113715
     39 H                     0.150329
  ---------------------------------------- 
  Sum of atomic charges =    -0.000015

Performing Hirshfeld population analysis.
Hirshfeld: reading atomic densities from disk.
Hirshfeld: performing integration.
Hirshfeld: integration completed in 175.90 sec.

          Hirshfeld Atomic Charges         

     Atom                 Charge (a.u.)    
  ---------------------------------------- 
      1 C                    -0.230789
      2 C                     0.017415
      3 C                     0.181244
      4 C                    -0.246224
      5 N                    -0.365619
      6 C                     0.256875
      7 C                     0.192645
      8 N                    -0.348441
      9 C                     0.087179
     10 C                     0.105415
     11 N                    -0.404350
     12 C                     0.205141
     13 C                    -0.061796
     14 S                     0.606549
     15 N                    -0.496852
     16 C                    -0.185379
     17 S                     0.308961
     18 C                     0.150402
     19 C                    -0.210505
     20 N                    -0.270984
     21 C                     0.148149
     22 C                     0.027410
     23 C                     0.076604
     24 N                    -0.265034
     25 C                    -0.172110
     26 S                     0.172656
     27 C                     0.060153
     28 C                    -0.079189
     29 C                    -0.279448
     30 H                     0.121954
     31 H                     0.098456
     32 H                     0.063116
     33 H                     0.125809
     34 H                     0.066791
     35 H                     0.080251
     36 H                     0.117665
     37 H                     0.081848
     38 H                     0.113633
     39 H                     0.150383
  ---------------------------------------- 
  Sum of atomic charges =    -0.000015


         Hirshfeld-I Atomic Charges         

     Atom                 Charge (a.u.)    
  ---------------------------------------- 
      1 C                    -0.230788902258478
      2 C                    0.017414888234766
      3 C                    0.181243967846568
      4 C                    -0.246223898435798
      5 N                    -0.365618807697149
      6 C                    0.256874701641190
      7 C                    0.192644648363932
      8 N                    -0.348440994790895
      9 C                    0.087179013288400
     10 C                    0.105415331031194
     11 N                    -0.404350220603836
     12 C                    0.205141170460608
     13 C                    -0.061796058618345
     14 S                    0.606549088919357
     15 N                    -0.496851882688493
     16 C                    -0.185379094080408
     17 S                    0.308961386454637
     18 C                    0.150401752462741
     19 C                    -0.210505036562773
     20 N                    -0.270984091280942
     21 C                    0.148149424154052
     22 C                    0.027410468883083
     23 C                    0.076603575354285
     24 N                    -0.265033562528621
     25 C                    -0.172110016202611
     26 S                    0.172656259619851
     27 C                    0.060153361002230
     28 C                    -0.079189323761096
     29 C                    -0.279447937985993
     30 H                    0.121954269539026
     31 H                    0.098456277557708
     32 H                    0.063115757779808
     33 H                    0.125808521505806
     34 H                    0.066790814382286
     35 H                    0.080251153259379
     36 H                    0.117665476238743
     37 H                    0.081847889072467
     38 H                    0.113633141048543
     39 H                    0.150382835953137
  ---------------------------------------- 
  Sum of atomic charges =    -0.000014653441641

Hirshiter_convergence_thresh = 0.0005000000
Hirshiter scheme takes 25 iteration to converge

Hirshfeld-I completed in 4507.55 (cpu) 4316.86 (wall) 
 -----------------------------------------------------------------
                    Cartesian Multipole Moments
 -----------------------------------------------------------------
    Charge (ESU x 10^10)
                 0.0000
    Dipole Moment (Debye)
         X      -0.3682      Y       1.5455      Z       0.7803
       Tot       1.7700
    Quadrupole Moments (Debye-Ang)
        XX    -151.7494     XY       3.3489     YY    -164.8677
        XZ       0.1411     YZ       2.5985     ZZ    -186.7993
    Octopole Moments (Debye-Ang^2)
       XXX     104.0320    XXY      14.6827    XYY     -37.9872
       YYY      38.6591    XXZ      16.1130    XYZ      -6.7218
       YYZ       5.3529    XZZ       0.8853    YZZ      -7.6855
       ZZZ       3.0074
    Hexadecapole Moments (Debye-Ang^3)
      XXXX  -15958.3504   XXXY     568.4862   XXYY   -3537.4280
      XYYY    -162.1699   YYYY   -3424.5806   XXXZ    -125.0290
      XXYZ     138.9998   XYYZ      38.6238   YYYZ      19.8293
      XXZZ   -3457.6176   XYZZ     -29.3987   YYZZ    -724.6741
      XZZZ      10.1247   YZZZ      -5.4243   ZZZZ    -323.4566
 -----------------------------------------------------------------
Archival summary:
1\1\chiqspirix\SP\ProcedureUnspecified\BasisUnspecified\362010\Andres\FriJun213:15:002017FriJun213:15:002017\0\\#,ProcedureUnspecified,BasisUnspecified,\\0,1\S\C,1,1.70532\C,2,1.38968,1,109.414\N,3,1.36028,2,124.979,1,179.535,0\C,4,1.29736,3,115.626,2,179.444,0\H,5,1.08433,4,117.548,3,179.995,0\C,5,1.42865,4,122.726,3,0.164385,0\H,7,1.08436,5,119.48,4,-179.885,0\N,7,1.29723,5,123.272,4,-0.211026,0\C,9,1.36313,7,115.953,5,-0.0298047,0\C,10,1.39475,9,125.959,7,-179.782,0\C,2,1.44612,1,122.372,3,179.146,0\C,12,1.36795,2,127.846,1,-156.392,0\H,13,1.07713,12,122.128,2,-0.797316,0\C,13,1.41474,12,113.046,2,179.811,0\H,15,1.07943,13,123.504,12,-179.579,0\C,15,1.35915,13,112.869,12,0.0489123,0\H,17,1.07659,15,127.997,13,179.962,0\C,11,1.45539,10,128.7,9,0.0283557,0\C,19,1.37531,11,122.634,10,11.6431,0\H,20,1.07814,19,119.369,11,0.0278667,0\N,20,1.35515,19,125.561,11,-178.666,0\C,22,1.30436,20,122.005,19,-0.0718123,0\C,19,1.42846,11,123.106,10,-166.789,0\N,24,1.33184,19,126.365,11,0.0354194,0\C,24,1.43242,19,120.442,11,178.191,0\N,26,1.33407,24,112.967,19,-177.301,0\C,23,1.48416,22,117.244,20,179.719,0\N,28,1.33115,23,117.972,22,157.593,0\C,29,1.32652,28,118.03,23,-179.969,0\H,30,1.08409,29,115.902,28,179.737,0\C,30,1.38603,29,123.55,28,-0.0847229,0\H,32,1.08044,30,120.493,29,-179.47,0\C,32,1.38544,30,118.18,29,0.570434,0\H,34,1.08179,32,120.719,30,179.755,0\C,34,1.38019,32,118.909,30,-0.393948,0\H,36,1.07925,34,121.939,32,179.61,0\S,27,1.60271,26,106.683,24,-0.833919,0\S,17,1.71275,15,111.652,13,0.457487,0\\\@

 Total job time:  5659.43s(wall), 9811.11s(cpu) 
 Fri Jun  2 13:15:00 2017

        *************************************************************
        *                                                           *
        *  Thank you very much for using Q-Chem.  Have a nice day.  *
        *                                                           *
        *************************************************************


0 sent ACK to 0 
now end server 0 ... 
cleanup process ... done
