
Running Job 1 of 2 C271.qcin
qchem C271.qcin_10963.0 /home/Andres/temp/qchem10963/ 1
/usr/local/qchem44/bin/mpi/mpirun_qchem -machinefile /usr/local/qchem44/bin/mpi/machines -np 1 /usr/local/qchem44/exe/qcprog.exe C271.qcin_10963.0 /home/Andres/temp/qchem10963/

Process 0 of 1 is on localhost.localdomain - thread support 0
initial socket setup ...start
initial socket setup ...done 
now start server 0 ... 
localhost.localdomain 127.0.0
                  Welcome to Q-Chem
     A Quantum Leap Into The Future Of Chemistry


 Q-Chem 4.4, Q-Chem, Inc., Pleasanton, CA (2016)

 Y. Shao,  Z. Gan,  E. Epifanovsky,  A. T. B. Gilbert,  M. Wormit,  
 J. Kussmann,  A. W. Lange,  A. Behn,  J. Deng,  X. Feng,  D. Ghosh,  
 M. Goldey,  P. R. Horn,  L. D. Jacobson,  I. Kaliman,  R. Z. Khaliullin,  
 T. Kus,  A. Landau,  J. Liu,  E. I. Proynov,  Y. M. Rhee,  R. M. Richard,  
 M. A. Rohrdanz,  R. P. Steele,  E. J. Sundstrom,  H. L. Woodcock III,  
 P. M. Zimmerman,  D. Zuev,  B. Albrecht,  E. Alguire,  B. Austin,  
 S. A. Baeppler,  G. J. O. Beran,  Y. A. Bernard,  E. Berquist,  
 K. Brandhorst,  K. B. Bravaya,  S. T. Brown,  D. Casanova,  C.-M. Chang,  
 Y. Chen,  S. H. Chien,  K. D. Closser,  M. P. Coons,  D. L. Crittenden,  
 S. Dasgupta,  M. Diedenhofen,  R. A. DiStasio Jr.,  H. Do,  A. D. Dutoi,  
 R. G. Edgar,  P.-T. Fang,  S. Fatehi,  Q. Feng,  L. Fusti-Molnar,  
 A. Ghysels,  A. Golubeva-Zadorozhnaya,  J. Gomes,  A. Gunina,  
 M. W. D. Hanson-Heine,  P. H. P. Harbach,  A. W. Hauser,  E. G. Hohenstein,  
 Z. C. Holden,  K. Hui,  T.-C. Jagau,  H. Ji,  B. Kaduk,  K. Khistyaev,  
 Jaehoon Kim,  Jihan Kim,  R. A. King,  P. Klunzinger,  D. Kosenkov,  
 T. Kowalczyk,  C. M. Krauter,  A. Kunitsa,  K. U. Lao,  A. Laurent,  
 K. V. Lawler,  D. Lefrancois,  S. Lehtola,  S. V. Levchenko,  C. Y. Lin,  
 Y.-S. Lin,  F. Liu,  E. Livshits,  R. C. Lochan,  A. Luenser,  P. Manohar,  
 S. F. Manzer,  S.-P. Mao,  Y. Mao,  N. Mardirossian,  A. V. Marenich,  
 L. A. Martinez-Martinez,  S. A. Maurer,  N. J. Mayhall,  J.-M. Mewes,  
 A. F. Morrison,  K. Nanda,  C. M. Oana,  R. Olivares-Amaya,  D. P. O'Neill,  
 J. A. Parkhill,  T. M. Perrine,  R. Peverati,  P. A. Pieniazek,  F. Plasser,  
 A. Prociuk,  D. R. Rehn,  E. Rosta,  N. J. Russ,  N. Sergueev,  
 S. M. Sharada,  S. Sharma,  D. W. Small,  A. Sodt,  T. Stauch,  T. Stein,  
 D. Stuck,  Y.-C. Su,  A. J. W. Thom,  T. Tsuchimochi,  L. Vogt,  O. Vydrov,  
 T. Wang,  M. A. Watson,  J. Wenzel,  A. White,  C. F. Williams,  
 V. Vanovschi,  S. Yeganeh,  S. R. Yost,  Z.-Q. You,  I. Y. Zhang,  X. Zhang,  
 Y. Zhao,  B. R. Brooks,  G. K. L. Chan,  D. M. Chipman,  C. J. Cramer,  
 W. A. Goddard III,  M. S. Gordon,  W. J. Hehre,  A. Klamt,  
 H. F. Schaefer III,  M. W. Schmidt,  C. D. Sherrill,  D. G. Truhlar,  
 A. Warshel,  X. Xu,  A. Aspuru-Guzik,  R. Baer,  A. T. Bell,  N. A. Besley,  
 J.-D. Chai,  A. Dreuw,  B. D. Dunietz,  T. R. Furlani,  S. R. Gwaltney,  
 C.-P. Hsu,  Y. Jung,  J. Kong,  D. S. Lambrecht,  W. Liang,  C. Ochsenfeld,  
 V. A. Rassolov,  L. V. Slipchenko,  J. E. Subotnik,  T. Van Voorhis,  
 J. M. Herbert,  A. I. Krylov,  P. M. W. Gill,  M. Head-Gordon

 Contributors to earlier versions of Q-Chem not listed above: 
 R. D. Adamson,  J. Baker,  E. F. C. Byrd,  A. K. Chakraborty,  C.-L. Cheng,  
 H. Dachsel,  R. J. Doerksen,  G. Hawkins,  A. Heyden,  S. Hirata,  
 G. Kedziora,  F. J. Keil,  C. Kelley,  P. P. Korambath,  W. Kurlancheek,  
 A. M. Lee,  M. S. Lee,  D. Liotard,  I. Lotan,  P. E. Maslen,  N. Nair,  
 D. Neuhauser,  R. Olson,  B. Peters,  J. Ritchie,  N. E. Schultz,  
 N. Shenvi,  A. C. Simmonett,  K. S. Thanthiriwatte,  Q. Wu,  W. Zhang

 Please cite Q-Chem as follows:
 Y. Shao et al., Mol. Phys. 113, 184-215 (2015)
 DOI: 10.1080/00268976.2014.952696

 Q-Chem 4.4.0 for Intel X86 Linux

 Parts of Q-Chem use Armadillo 5.200.1 (Boston Tea Smuggler).
 http://arma.sourceforge.net/

 Q-Chem begins on Thu Jun  1 14:56:15 2017  

Host: 
0

     Scratch files written to /home/Andres/temp/qchem10963//
 Apr2716 1281_ 20995  20993 0   
 Parallel job on  1  processors
Processing $rem in /usr/local/qchem44/config/preferences.
 MEM_TOTAL  16000 

Checking the input file for inconsistencies... 	...done.

--------------------------------------------------------------
User input:
--------------------------------------------------------------
$comment
OPTIMIZATION
$end

$rem
JOBTYPE OPT
EXCHANGE omegaB97X-D
BASIS cc-pVTZ
$end

$molecule
0 1
C          0.47990        1.54640        0.18110
C         -0.84320        1.29700        0.48890
N          1.33490        0.59110       -0.22660
C         -1.31450       -0.01330        0.38300
C          0.84460       -0.67270       -0.32080
C         -0.46840       -1.05700       -0.02860
C         -0.94930       -2.44300       -0.15270
C         -2.26300       -2.79880       -0.49920
C         -0.14280       -3.59540        0.07060
N         -2.81260       -4.05070       -0.62630
N          1.15210       -3.60310        0.43830
C         -0.70060       -5.00310       -0.08060
C         -2.06700       -5.17970       -0.43320
S          1.63410       -5.17850        0.54750
N          0.23190       -5.94870        0.14250
C         -2.72510       -6.46930       -0.58310
S         -2.28550       -7.85400        0.33260
C         -3.78660       -6.77530       -1.39740
C         -3.46360       -8.88850       -0.39270
S         -4.73430       -5.77510       -2.58160
C         -4.16730       -8.11830       -1.26980
C         -3.59360      -10.28740       -0.04770
C         -5.65370       -7.23760       -2.86960
C         -5.26110       -8.36870       -2.14390
N         -4.50380      -11.07780       -0.58800
S         -2.56720      -11.07130        1.10610
C         -4.39550      -12.35620       -0.07020
C         -3.40090      -12.54120        0.86390
H          0.89850        2.54570        0.25600
H         -1.49530        2.10200        0.80940
H         -2.35350       -0.20140        0.64370
H          1.58600       -1.38760       -0.66920
H         -2.99200       -2.01690       -0.71890
H         -6.45930       -7.17580       -3.58900
H         -5.76320       -9.32370       -2.25480
H         -5.07450      -13.12900       -0.40990
H         -3.13100      -13.43990        1.39920
$end

--------------------------------------------------------------
 ----------------------------------------------------------------
             Standard Nuclear Orientation (Angstroms)
    I     Atom           X                Y                Z
 ----------------------------------------------------------------
    1      C      -7.7353859267     0.2798857089    -0.4360636449
    2      C      -7.0146668136     1.0915817380    -1.2900240224
    3      N      -7.1612328427    -0.5229011018     0.4781157428
    4      C      -5.6206878736     1.0698274703    -1.2089434660
    5      C      -5.8034808284    -0.5194722459     0.5324837527
    6      C      -4.9612556499     0.2457529041    -0.2812259919
    7      C      -3.4930034711     0.2147855155    -0.1766402359
    8      C      -2.6554942151     1.3102857836    -0.4429501847
    9      C      -2.7392927379    -0.9331379724     0.2008815470
   10      N      -1.2852272404     1.3813990044    -0.3902291465
   11      N      -3.2341111037    -2.1489686442     0.4991082267
   12      C      -1.2209798177    -0.8968624906     0.2959159396
   13      C      -0.5291261845     0.3050223481    -0.0193215342
   14      S      -1.9625408266    -3.1269241871     0.8900631940
   15      N      -0.7062267803    -2.0738970573     0.6997824511
   16      C       0.9178086029     0.4608488268     0.0077267472
   17      S       2.0019803554    -0.8220214871    -0.3499939665
   18      C       1.6295468231     1.6073509733     0.2576552849
   19      C       3.4287993577     0.1227396643    -0.1138079137
   20      S       1.1022094234     3.2966339734     0.6688768585
   21      C       3.0117018394     1.3854199061     0.1851476134
   22      C       4.7605957142    -0.4264829248    -0.2461681130
   23      C       2.8125300295     3.6699920594     0.7194117396
   24      C       3.6862173878     2.6066113027     0.4624015722
   25      N       5.8540922121     0.2964238080    -0.0824868531
   26      S       5.0590828699    -2.0889040027    -0.6289372181
   27      C       6.9785155259    -0.4874045372    -0.2707356948
   28      C       6.7423109808    -1.8091280511    -0.5761065116
   29      H      -8.8206781656     0.2524001393    -0.4647299953
   30      H      -7.5235709668     1.7252742822    -2.0079585474
   31      H      -5.0625277882     1.7003770551    -1.8972251235
   32      H      -5.4107647791    -1.1792545836     1.3022888588
   33      H      -3.0958618253     2.2677697051    -0.7264596341
   34      H       3.0840590409     4.6917284355     0.9489193289
   35      H       4.7633040731     2.7336752436     0.4753339834
   36      H       7.9615907381    -0.0426735490    -0.1736048275
   37      H       7.4537643450    -2.5999334108    -0.7645601762
 ----------------------------------------------------------------
 Molecular Point Group                 C1    NOp =  1
 Largest Abelian Subgroup              C1    NOp =  1
 Nuclear Repulsion Energy =  2929.8244741644 hartrees
 There are      111 alpha and      111 beta electrons
 Requested basis set is cc-pVTZ
 There are 342 shells and 982 basis functions

 Total QAlloc Memory Limit  16000 MB
 Mega-Array Size        61 MB
 MEM_STATIC part        62 MB
 A cutoff of  1.0D-11 yielded  28799 shell pairs
 There are    228267 function pairs (    298081 Cartesian)
 
 -------------------------------------------------------
 OpenMP Integral Computing Module                       
 Release: version 1.0, May 2013, Q-Chem Inc. Pittsburgh 
 -------------------------------------------------------
 Integral Job Info:
 Integral job number is                      11
 Integral operator is                         1
 short-range coefficients              22203600
 long-range coefficients              100000000
 Omega coefficients                         200
 if combine SR and LR in K                    1
 Integral screening is                        0
 Integral computing path is                   2
 max size of driver memory is            800000
 size of driver memory is                776718
 size of scratch memory is             26248924
 max col of scratch BK array              10000
 max len of scratch array in speh3          662
 max len of scratch index in speh4           32
 max int batch size is                      520
 min int batch size is                       52
 fixed nKL is                                52
 max L of basis functions is                  3
 order of int derivative is                   0
 number of shells is                        342
 number of basis is                        1131
 number of cartesian basis is              1131
 number of contracted shell pairs         28799
 number of primitive shell pairs          90900
 maxK2 (contraction) of shell pair          121
 max number of K2 of shell pair               1
 max number of CS2 of shell pair           3917
 max number of PS2 of shell pair          11487
 mem total for path MDJ                  790440
 -------------------------------------------------------
 Smallest overlap matrix eigenvalue = 2.57E-05

 Scale SEOQF with 1.000000e-02/1.000000e-01/1.000000e-01

 Standard Electronic Orientation quadrupole field applied
 Nucleus-field energy     =     0.0000000589 hartrees
 Guess from superposition of atomic densities
 Warning:  Energy on first SCF cycle will be non-variational
 Long-range K will be added via erf
 Coulomb attenuation parameter = 0.2 bohr**(-1)
 A restricted hybrid HF-DFT SCF calculation will be
 performed using Pulay DIIS extrapolation
 Exchange:     0.2220 Hartree-Fock + 1.0000 wB97X-D + LR-HF
 Correlation:  1.0000 wB97X-D
 Using SG-1 standard quadrature grid
 Dispersion:   Grimme D
 SCF converges when DIIS error is below 1.0E-08
 using 4 threads for integral computing 
 using 4 threads for integral computing 
 K construction time:  CPU 121.25 s  wall 30.74 s
 -------------------------------------------------------
 OpenMP BLAS3 based DFT computing Module                
 Release: version 1.0, May 2013, Q-Chem Inc. Pittsburgh 
 -------------------------------------------------------
 ---------------------------------------
  Cycle       Energy         DIIS Error
 ---------------------------------------
    1   -2604.9593867087      1.80E-02
 K construction time:  CPU 1553.87 s  wall 390.30 s
    2   -2595.6871605141      1.35E-03
 K construction time:  CPU 1689.18 s  wall 424.92 s
    3   -2595.6751397157      1.51E-03
 K construction time:  CPU 1707.37 s  wall 429.61 s
    4   -2595.9177180857      2.50E-04
 K construction time:  CPU 1490.81 s  wall 373.69 s
    5   -2595.9234844461      1.42E-04
 K construction time:  CPU 1459.10 s  wall 367.02 s
    6   -2595.9256679796      4.81E-05
 K construction time:  CPU 1104.54 s  wall 277.31 s
    7   -2595.9259280058      2.24E-05
 K construction time:  CPU 1189.96 s  wall 298.29 s
    8   -2595.9260009810      6.75E-06
 K construction time:  CPU 1174.13 s  wall 295.50 s
    9   -2595.9260164293      3.63E-06
 K construction time:  CPU 1268.08 s  wall 319.32 s
   10   -2595.9260213606      1.15E-06
 K construction time:  CPU 1107.34 s  wall 277.39 s
   11   -2595.9260219462      7.02E-07
 K construction time:  CPU 1017.08 s  wall 255.03 s
   12   -2595.9260220850      2.74E-07
 K construction time:  CPU 958.44 s  wall 240.39 s
   13   -2595.9260221053      1.29E-07
 K construction time:  CPU 730.94 s  wall 183.65 s
   14   -2595.9260221103      4.01E-08
 K construction time:  CPU 628.21 s  wall 158.22 s
   15   -2595.9260221113      1.87E-08
 K construction time:  CPU 1854.34 s  wall 465.97 s
   16   -2595.9260221063      7.34E-09 Convergence criterion met
 ---------------------------------------
 SCF time:  CPU 25320.46 s  wall 6386.10 s
 SCF   energy in the final basis set = -2595.9260221063
 Total energy in the final basis set = -2595.9260221063
 
 --------------------------------------------------------------
 
                    Orbital Energies (a.u.)
 --------------------------------------------------------------
 
 Alpha MOs
 -- Occupied --
-89.164 -89.103 -89.102 -89.090 -14.501 -14.493 -14.465 -14.450
-14.442 -10.380 -10.379 -10.375 -10.373 -10.352 -10.347 -10.346
-10.340 -10.340 -10.334 -10.333 -10.333 -10.331 -10.331 -10.329
-10.323 -10.313 -10.307 -10.300  -8.167  -8.113  -8.111  -8.097
 -6.117  -6.112  -6.110  -6.062  -6.060  -6.058  -6.056  -6.056
 -6.054  -6.047  -6.043  -6.039  -1.129  -1.076  -1.057  -1.046
 -1.025  -1.009  -0.950  -0.942  -0.913  -0.908  -0.902  -0.881
 -0.862  -0.846  -0.825  -0.803  -0.776  -0.750  -0.739  -0.725
 -0.724  -0.691  -0.688  -0.678  -0.650  -0.635  -0.621  -0.617
 -0.610  -0.596  -0.579  -0.578  -0.567  -0.560  -0.539  -0.534
 -0.527  -0.524  -0.519  -0.510  -0.505  -0.501  -0.493  -0.489
 -0.480  -0.479  -0.476  -0.462  -0.458  -0.447  -0.443  -0.433
 -0.426  -0.420  -0.403  -0.394  -0.382  -0.372  -0.371  -0.370
 -0.366  -0.357  -0.348  -0.339  -0.327  -0.314  -0.269
 -- Virtual --
 -0.065  -0.015   0.019   0.031   0.038   0.055   0.058   0.061
  0.064   0.078   0.099   0.102   0.114   0.117   0.128   0.131
  0.142   0.144   0.147   0.163   0.168   0.170   0.172   0.175
  0.182   0.191   0.200   0.211   0.213   0.223   0.230   0.242
  0.250   0.255   0.261   0.262   0.268   0.273   0.277   0.289
  0.294   0.297   0.301   0.302   0.310   0.311   0.317   0.321
  0.325   0.329   0.334   0.338   0.341   0.344   0.348   0.358
  0.362   0.363   0.366   0.369   0.375   0.376   0.378   0.385
  0.385   0.388   0.390   0.397   0.399   0.401   0.404   0.408
  0.408   0.416   0.419   0.423   0.429   0.434   0.436   0.440
  0.443   0.447   0.449   0.452   0.454   0.459   0.463   0.463
  0.466   0.469   0.472   0.474   0.478   0.481   0.483   0.483
  0.489   0.492   0.495   0.498   0.502   0.507   0.512   0.518
  0.521   0.523   0.528   0.535   0.537   0.542   0.546   0.549
  0.552   0.559   0.563   0.575   0.582   0.585   0.592   0.593
  0.597   0.604   0.612   0.617   0.626   0.628   0.630   0.637
  0.646   0.649   0.650   0.656   0.662   0.666   0.670   0.677
  0.681   0.681   0.686   0.694   0.702   0.709   0.716   0.722
  0.724   0.728   0.737   0.739   0.743   0.748   0.753   0.756
  0.760   0.761   0.767   0.772   0.775   0.786   0.787   0.792
  0.794   0.797   0.802   0.809   0.811   0.820   0.820   0.823
  0.826   0.837   0.841   0.847   0.850   0.855   0.857   0.860
  0.865   0.866   0.873   0.881   0.887   0.892   0.898   0.904
  0.911   0.919   0.924   0.927   0.928   0.936   0.938   0.944
  0.950   0.960   0.964   0.969   0.971   0.980   0.984   0.989
  0.995   0.998   1.004   1.008   1.019   1.024   1.025   1.030
  1.035   1.037   1.045   1.054   1.058   1.063   1.067   1.075
  1.084   1.087   1.095   1.098   1.099   1.106   1.111   1.117
  1.124   1.131   1.133   1.141   1.144   1.156   1.164   1.166
  1.173   1.177   1.181   1.191   1.192   1.198   1.209   1.214
  1.226   1.227   1.235   1.246   1.251   1.255   1.258   1.263
  1.276   1.282   1.285   1.292   1.300   1.309   1.312   1.322
  1.327   1.338   1.346   1.348   1.354   1.356   1.370   1.377
  1.382   1.386   1.397   1.401   1.415   1.419   1.421   1.426
  1.432   1.437   1.446   1.449   1.452   1.468   1.473   1.483
  1.486   1.492   1.498   1.505   1.514   1.523   1.528   1.531
  1.542   1.548   1.555   1.563   1.567   1.571   1.578   1.586
  1.597   1.601   1.609   1.612   1.615   1.625   1.630   1.635
  1.639   1.645   1.650   1.654   1.658   1.665   1.667   1.673
  1.677   1.687   1.689   1.698   1.703   1.711   1.714   1.720
  1.734   1.736   1.747   1.757   1.762   1.768   1.769   1.780
  1.789   1.800   1.808   1.820   1.821   1.834   1.853   1.857
  1.857   1.865   1.874   1.883   1.884   1.894   1.905   1.911
  1.922   1.928   1.933   1.950   1.952   1.957   1.960   1.971
  1.974   1.982   1.997   1.998   2.004   2.009   2.014   2.027
  2.036   2.038   2.052   2.056   2.068   2.070   2.084   2.095
  2.101   2.110   2.123   2.125   2.131   2.133   2.147   2.150
  2.163   2.171   2.174   2.180   2.187   2.202   2.211   2.219
  2.231   2.234   2.243   2.252   2.253   2.264   2.271   2.278
  2.288   2.296   2.313   2.320   2.329   2.334   2.346   2.355
  2.363   2.366   2.372   2.378   2.385   2.387   2.392   2.400
  2.409   2.417   2.420   2.428   2.435   2.441   2.450   2.450
  2.457   2.473   2.475   2.479   2.484   2.496   2.504   2.514
  2.518   2.523   2.536   2.540   2.547   2.554   2.554   2.567
  2.568   2.577   2.583   2.596   2.610   2.614   2.616   2.626
  2.628   2.637   2.643   2.646   2.653   2.656   2.669   2.686
  2.706   2.713   2.715   2.724   2.738   2.755   2.758   2.760
  2.768   2.774   2.778   2.787   2.793   2.794   2.800   2.800
  2.809   2.814   2.828   2.832   2.839   2.853   2.855   2.860
  2.872   2.881   2.887   2.896   2.904   2.910   2.916   2.921
  2.926   2.930   2.935   2.937   2.947   2.955   2.964   2.971
  2.972   2.974   2.985   2.987   2.992   3.006   3.011   3.017
  3.020   3.024   3.031   3.034   3.042   3.045   3.047   3.057
  3.058   3.064   3.075   3.078   3.079   3.084   3.092   3.096
  3.104   3.111   3.112   3.115   3.121   3.126   3.128   3.134
  3.137   3.141   3.147   3.150   3.155   3.161   3.164   3.171
  3.175   3.182   3.185   3.189   3.193   3.196   3.197   3.200
  3.207   3.212   3.215   3.220   3.225   3.227   3.229   3.238
  3.241   3.249   3.256   3.257   3.260   3.263   3.266   3.269
  3.280   3.285   3.289   3.295   3.299   3.303   3.306   3.314
  3.320   3.324   3.329   3.333   3.340   3.345   3.348   3.359
  3.363   3.372   3.378   3.384   3.390   3.396   3.406   3.410
  3.414   3.424   3.425   3.430   3.437   3.446   3.450   3.459
  3.459   3.465   3.468   3.474   3.479   3.480   3.492   3.505
  3.506   3.512   3.517   3.524   3.527   3.534   3.549   3.556
  3.566   3.570   3.577   3.588   3.593   3.600   3.609   3.613
  3.621   3.630   3.634   3.643   3.650   3.652   3.667   3.674
  3.679   3.688   3.697   3.717   3.721   3.728   3.730   3.746
  3.752   3.754   3.768   3.771   3.777   3.783   3.786   3.787
  3.793   3.802   3.806   3.812   3.822   3.828   3.838   3.844
  3.853   3.855   3.859   3.870   3.888   3.895   3.906   3.917
  3.918   3.923   3.929   3.934   3.941   3.953   3.956   3.961
  3.967   3.975   3.978   3.987   3.992   4.002   4.019   4.023
  4.035   4.038   4.044   4.051   4.061   4.070   4.077   4.082
  4.088   4.102   4.111   4.125   4.129   4.133   4.143   4.147
  4.161   4.164   4.172   4.176   4.193   4.197   4.201   4.214
  4.226   4.232   4.243   4.250   4.253   4.260   4.278   4.286
  4.297   4.312   4.322   4.330   4.336   4.350   4.352   4.359
  4.364   4.378   4.380   4.388   4.405   4.415   4.420   4.431
  4.434   4.437   4.449   4.457   4.470   4.489   4.491   4.501
  4.516   4.525   4.532   4.543   4.550   4.564   4.575   4.582
  4.588   4.600   4.612   4.617   4.629   4.635   4.644   4.650
  4.659   4.690   4.692   4.709   4.716   4.735   4.752   4.765
  4.779   4.799   4.802   4.809   4.817   4.822   4.834   4.837
  4.858   4.875   4.880   4.889   4.905   4.907   4.909   4.922
  4.927   4.932   4.935   4.943   4.953   4.962   4.976   4.984
  4.994   5.002   5.007   5.020   5.033   5.040   5.052   5.068
  5.074   5.086   5.099   5.105   5.126   5.138   5.148   5.162
  5.181   5.190   5.196   5.217   5.224   5.240   5.246   5.247
  5.254   5.263   5.272   5.295   5.312   5.316   5.338   5.368
  5.379   5.395   5.399   5.428   5.428   5.440   5.467   5.475
  5.498   5.502   5.520   5.537   5.561   5.595   5.622   5.624
  5.643   5.661   5.677   5.681   5.694   5.712   5.727   5.760
  5.776   5.805   5.819   5.869   5.905   5.928   5.947   5.994
  6.044   6.063   6.110   6.126   6.132   6.152   6.182   6.224
  6.274   6.285   6.340   6.370   6.389   6.668   6.927   7.933
  8.701   9.604  10.046  10.702  10.811  11.051  11.177  11.785
 11.793  11.907  12.183  12.480  12.504  12.731  12.832  13.126
 13.199  13.246  13.458  13.625  13.754  14.448  14.595
 --------------------------------------------------------------
 
          Ground-State Mulliken Net Atomic Charges

     Atom                 Charge (a.u.)
  ----------------------------------------
      1 C                    -0.058426
      2 C                    -0.109512
      3 N                    -0.175239
      4 C                    -0.138738
      5 C                    -0.085107
      6 C                     0.099783
      7 C                     0.031421
      8 C                    -0.078614
      9 C                     0.047920
     10 N                    -0.199169
     11 N                    -0.295339
     12 C                     0.009405
     13 C                     0.088722
     14 S                     0.409209
     15 N                    -0.273732
     16 C                     0.002704
     17 S                     0.132027
     18 C                    -0.052471
     19 C                    -0.032192
     20 S                     0.086668
     21 C                     0.062550
     22 C                     0.032409
     23 C                    -0.166710
     24 C                    -0.171133
     25 N                    -0.198365
     26 S                     0.115534
     27 C                    -0.070626
     28 C                    -0.207799
     29 H                     0.122097
     30 H                     0.130932
     31 H                     0.122753
     32 H                     0.135552
     33 H                     0.134477
     34 H                     0.133777
     35 H                     0.141088
     36 H                     0.129658
     37 H                     0.144486
  ----------------------------------------
  Sum of atomic charges =     0.000000

 -----------------------------------------------------------------
                    Cartesian Multipole Moments
 -----------------------------------------------------------------
    Charge (ESU x 10^10)
                 0.0000
    Dipole Moment (Debye)
         X       1.5052      Y      -0.0472      Z      -1.3525
       Tot       2.0242
    Quadrupole Moments (Debye-Ang)
        XX    -169.4849     XY     -17.6195     YY    -172.9013
        XZ       9.2026     YZ      -0.1027     ZZ    -187.0214
    Octopole Moments (Debye-Ang^2)
       XXX     215.4982    XXY      30.6482    XYY      38.8009
       YYY      -3.2132    XXZ    -109.4615    XYZ      35.2291
       YYZ      10.2186    XZZ     -18.9742    YZZ      -5.7027
       ZZZ       0.5032
    Hexadecapole Moments (Debye-Ang^3)
      XXXX  -17881.7805   XXXY   -1177.2942   XXYY   -3686.6401
      XYYY      70.7637   YYYY   -3440.5155   XXXZ     568.9972
      XXYZ     -10.3455   XYYZ      21.3334   YYYZ      37.9334
      XXZZ   -3444.2651   XYZZ     -34.2382   YYZZ    -725.9465
      XZZZ       4.1338   YZZZ     -34.4444   ZZZZ    -602.4114
 -----------------------------------------------------------------
 Calculating analytic gradient of the SCF energy
 K construction time:  CPU 4396.80 s  wall 1100.99 s
 Gradient of SCF Energy
            1           2           3           4           5           6
    1  -0.0030667  -0.0150899  -0.0221662   0.0056023   0.0223310   0.0137397
    2   0.0115684   0.0005566  -0.0126142  -0.0020987   0.0060641  -0.0075633
    3  -0.0121210  -0.0018583   0.0128227   0.0034036  -0.0072198   0.0069968
            7           8           9          10          11          12
    1  -0.0306361   0.0005649  -0.0282317  -0.0099394  -0.0238803   0.0394445
    2  -0.0129496   0.0045576   0.0231412   0.0358475  -0.0040952   0.0233593
    3   0.0017479  -0.0035888  -0.0069155  -0.0148063  -0.0021346  -0.0050286
           13          14          15          16          17          18
    1   0.0318841  -0.0015215   0.0219915   0.0096373  -0.0003135   0.0343738
    2  -0.0314206  -0.0349938  -0.0052774  -0.0025650   0.0148998  -0.0008313
    3   0.0158893   0.0093634   0.0064466  -0.0004678  -0.0015758   0.0010939
           19          20          21          22          23          24
    1   0.0174795  -0.0258586  -0.0154753  -0.0132594  -0.0272219   0.0108526
    2   0.0131180   0.0386046  -0.0399918  -0.0152449   0.0288679  -0.0537716
    3   0.0062270   0.0118630  -0.0108914  -0.0033500   0.0047288  -0.0121040
           25          26          27          28          29          30
    1  -0.0012789   0.0030087   0.0147596  -0.0059014  -0.0018679  -0.0017678
    2   0.0202546   0.0025607   0.0075614  -0.0179218  -0.0008422   0.0015976
    3   0.0047220   0.0006075   0.0013731  -0.0044742   0.0003110  -0.0019391
           31          32          33          34          35          36
    1  -0.0013802  -0.0024925  -0.0001292  -0.0035916   0.0044142   0.0033447
    2   0.0035492  -0.0028524   0.0054927   0.0031230   0.0023948   0.0010626
    3  -0.0035839   0.0045961  -0.0013596   0.0005083   0.0006329   0.0006772
           37
    1   0.0016416
    2  -0.0031477
    3  -0.0005925
 Max gradient component =       5.377E-02
 RMS gradient           =       1.530E-02
 Gradient time:  CPU 5131.94 s  wall 1286.29 s
 Geometry Optimization Parameters
   NAtoms,    NIC,     NZ,  NCons,   NDum,   NFix, NCnnct, MaxDiis
       37     280       0       0       0       0       0       0


** GEOMETRY OPTIMIZATION IN DELOCALIZED INTERNAL COORDINATES **
   Searching for a Minimum

   Optimization Cycle:   1

                       Coordinates (Angstroms)
     ATOM                X               Y               Z
      1  C        -7.7353859267    0.2798857089   -0.4360636449
      2  C        -7.0146668136    1.0915817380   -1.2900240224
      3  N        -7.1612328427   -0.5229011018    0.4781157428
      4  C        -5.6206878736    1.0698274703   -1.2089434660
      5  C        -5.8034808284   -0.5194722459    0.5324837527
      6  C        -4.9612556499    0.2457529041   -0.2812259919
      7  C        -3.4930034711    0.2147855155   -0.1766402359
      8  C        -2.6554942151    1.3102857836   -0.4429501847
      9  C        -2.7392927379   -0.9331379724    0.2008815470
     10  N        -1.2852272404    1.3813990044   -0.3902291465
     11  N        -3.2341111037   -2.1489686442    0.4991082267
     12  C        -1.2209798177   -0.8968624906    0.2959159396
     13  C        -0.5291261845    0.3050223481   -0.0193215342
     14  S        -1.9625408266   -3.1269241871    0.8900631940
     15  N        -0.7062267803   -2.0738970573    0.6997824511
     16  C         0.9178086029    0.4608488268    0.0077267472
     17  S         2.0019803554   -0.8220214871   -0.3499939665
     18  C         1.6295468231    1.6073509733    0.2576552849
     19  C         3.4287993577    0.1227396643   -0.1138079137
     20  S         1.1022094234    3.2966339734    0.6688768585
     21  C         3.0117018394    1.3854199061    0.1851476134
     22  C         4.7605957142   -0.4264829248   -0.2461681130
     23  C         2.8125300295    3.6699920594    0.7194117396
     24  C         3.6862173878    2.6066113027    0.4624015722
     25  N         5.8540922121    0.2964238080   -0.0824868531
     26  S         5.0590828699   -2.0889040027   -0.6289372181
     27  C         6.9785155259   -0.4874045372   -0.2707356948
     28  C         6.7423109808   -1.8091280511   -0.5761065116
     29  H        -8.8206781656    0.2524001393   -0.4647299953
     30  H        -7.5235709668    1.7252742822   -2.0079585474
     31  H        -5.0625277882    1.7003770551   -1.8972251235
     32  H        -5.4107647791   -1.1792545836    1.3022888588
     33  H        -3.0958618253    2.2677697051   -0.7264596341
     34  H         3.0840590409    4.6917284355    0.9489193289
     35  H         4.7633040731    2.7336752436    0.4753339834
     36  H         7.9615907381   -0.0426735490   -0.1736048275
     37  H         7.4537643450   -2.5999334108   -0.7645601762
   Point Group: c1    Number of degrees of freedom:   105


   Energy is  -2595.926022106


 Attempting to Generate Delocalized Internal Coordinates

105 Hessian modes will be used to form the next step
  Hessian Eigenvalues:
     0.012843    0.013418    0.013999    0.015058    0.015255    0.015764
     0.015811    0.016083    0.016234    0.016709    0.017407    0.017619
     0.018110    0.018394    0.018692    0.018988    0.019277    0.019623
     0.020557    0.020684    0.020696    0.020915    0.021120    0.021951
     0.022047    0.022224    0.022330    0.022369    0.022405    0.023482
     0.023588    0.023724    0.023863    0.024361    0.159981    0.159992
     0.159995    0.159997    0.159998    0.159999    0.160000    0.160000
     0.160000    0.219999    0.224666    0.225379    0.231792    0.232668
     0.234300    0.245701    0.247473    0.249233    0.249749    0.249942
     0.249943    0.249970    0.249975    0.249976    0.249978    0.249979
     0.249989    0.249993    0.249996    0.249999    0.291497    0.297669
     0.314724    0.320425    0.330092    0.342363    0.346554    0.350918
     0.351310    0.352768    0.354403    0.354648    0.354666    0.355921
     0.357746    0.359578    0.375267    0.386849    0.401427    0.407617
     0.408355    0.409708    0.412717    0.414590    0.425369    0.431059
     0.440313    0.447428    0.457447    0.464117    0.478376    0.479367
     0.479877    0.487977    0.507131    0.511534    0.518769    0.528791
     0.547696    0.552028    0.592770

 Minimum Search - Taking Simple RFO Step
 Searching for Lamda that Minimizes Along All modes
 Value Taken    Lamda =  -0.04964457
 Calculated Step too Large.  Step scaled by  0.783298
 Step Taken.  Stepsize is  0.300000

                             Maximum     Tolerance    Cnvgd?
         Gradient           0.050306      0.000300      NO
         Displacement       0.089143      0.001200      NO
         Energy change     *********      0.000001      NO


 New Cartesian Coordinates Obtained by Inverse Iteration

 Displacement from previous Coordinates is:  0.938798
 ----------------------------------------------------------------
             Standard Nuclear Orientation (Angstroms)
    I     Atom           X                Y                Z
 ----------------------------------------------------------------
    1      C      -7.6526260779     0.3116378544    -0.3877864227
    2      C      -6.9330452861     1.1351694408    -1.2342270882
    3      N      -7.0820899734    -0.5133994316     0.4934081089
    4      C      -5.5515363410     1.0974230409    -1.1758005040
    5      C      -5.7438552552    -0.5318145578     0.5348751706
    6      C      -4.9143223877     0.2451923476    -0.2736843904
    7      C      -3.4521212664     0.1916483682    -0.1802545132
    8      C      -2.6447776112     1.2863469753    -0.4280633199
    9      C      -2.7212046805    -0.9753158908     0.1659735895
   10      N      -1.2920593274     1.3471325129    -0.3896808699
   11      N      -3.2156175628    -2.1795431430     0.4458799794
   12      C      -1.2565956950    -0.9358068884     0.2400757757
   13      C      -0.5763701202     0.2745248843    -0.0598228251
   14      S      -1.9478690434    -3.1427181131     0.7933440526
   15      N      -0.7174311178    -2.0960772952     0.6016283092
   16      C       0.8643975457     0.4277749892    -0.0269823091
   17      S       1.9516117409    -0.8664473097    -0.3416929517
   18      C       1.5781691905     1.5788511799     0.2092427851
   19      C       3.3604646841     0.1182383872    -0.1161517848
   20      S       1.1110832959     3.2441168257     0.5718865098
   21      C       2.9738378561     1.4049593602     0.1657402925
   22      C       4.6951086810    -0.4189251196    -0.2249396362
   23      C       2.8134500371     3.6582903149     0.6626182334
   24      C       3.6704854260     2.6315993333     0.4342716329
   25      N       5.7711771157     0.3123818423    -0.0693510712
   26      S       5.0119110105    -2.0872532754    -0.5660160766
   27      C       6.8966267826    -0.4512466472    -0.2265947800
   28      C       6.6896826604    -1.7695388770    -0.4991126003
   29      H      -8.7365462418     0.3018079469    -0.4037441324
   30      H      -7.4421366974     1.7892940463    -1.9286129148
   31      H      -4.9772244842     1.7258426243    -1.8466246669
   32      H      -5.3331790910    -1.2096034520     1.2730556554
   33      H      -3.0975570429     2.2398092535    -0.6831687945
   34      H       3.0816707850     4.6804459747     0.8836697148
   35      H       4.7439922365     2.7463470053     0.4560163814
   36      H       7.8675329039     0.0117450788    -0.1326394728
   37      H       7.4189568335    -2.5450699841    -0.6607950270
 ----------------------------------------------------------------
 Molecular Point Group                 C1    NOp =  1
 Largest Abelian Subgroup              C1    NOp =  1
 Nuclear Repulsion Energy =  2955.5944158210 hartrees
 There are      111 alpha and      111 beta electrons
 Applying Cartesian multipole field
    Component          Value
    ---------          -----
     (2,0,0)        1.00000E-12
     (0,2,0)        2.00000E-11
     (0,0,2)       -3.00000E-11
 Nucleus-field energy     =     0.0000000597 hartrees
 Requested basis set is cc-pVTZ
 There are 342 shells and 982 basis functions
 A cutoff of  1.0D-11 yielded  29113 shell pairs
 There are    230831 function pairs (    301464 Cartesian)
 Smallest overlap matrix eigenvalue = 2.44E-05
 Guess MOs from SCF MO coefficient file
 Reading MOs from coefficient file
 Reading MOs from coefficient file
 Long-range K will be added via erf
 Coulomb attenuation parameter = 0.2 bohr**(-1)
 A restricted hybrid HF-DFT SCF calculation will be
 performed using Pulay DIIS extrapolation
 Exchange:     0.2220 Hartree-Fock + 1.0000 wB97X-D + LR-HF
 Correlation:  1.0000 wB97X-D
 Using SG-1 standard quadrature grid
 Dispersion:   Grimme D
 SCF converges when DIIS error is below 1.0E-08
 Geometry optimization detected.  Setting ReadMinima to 0
 Setting SaveMinima to 0
 using 4 threads for integral computing 
 using 4 threads for integral computing 
 K construction time:  CPU 2022.85 s  wall 508.35 s
 -------------------------------------------------------
 OpenMP BLAS3 based DFT computing Module                
 Release: version 1.0, May 2013, Q-Chem Inc. Pittsburgh 
 -------------------------------------------------------
 ---------------------------------------
  Cycle       Energy         DIIS Error
 ---------------------------------------
    1   -2596.0720511408      6.74E-04
 K construction time:  CPU 2131.27 s  wall 534.48 s
    2   -2595.9488717856      1.41E-04
 K construction time:  CPU 1679.67 s  wall 421.66 s
    3   -2595.9487695905      1.66E-04
 K construction time:  CPU 1562.93 s  wall 392.02 s
    4   -2595.9519795516      2.49E-05
 K construction time:  CPU 1216.37 s  wall 305.38 s
    5   -2595.9520545899      1.27E-05
 K construction time:  CPU 1140.66 s  wall 286.99 s
    6   -2595.9520797224      5.30E-06
 K construction time:  CPU 1036.96 s  wall 260.23 s
    7   -2595.9520851155      2.12E-06
 K construction time:  CPU 905.91 s  wall 227.46 s
    8   -2595.9520861287      1.09E-06
 K construction time:  CPU 978.14 s  wall 245.61 s
    9   -2595.9520864188      4.85E-07
 K construction time:  CPU 951.05 s  wall 239.09 s
   10   -2595.9520864983      2.76E-07
 K construction time:  CPU 902.11 s  wall 226.41 s
   11   -2595.9520865194      9.28E-08
 K construction time:  CPU 764.44 s  wall 191.79 s
   12   -2595.9520865233      5.10E-08
 K construction time:  CPU 620.56 s  wall 155.67 s
   13   -2595.9520865242      1.70E-08
 K construction time:  CPU 553.11 s  wall 138.71 s
   14   -2595.9520865222      8.11E-09 Convergence criterion met
 ---------------------------------------
 SCF time:  CPU 21776.76 s  wall 5487.27 s
 SCF   energy in the final basis set = -2595.9520865222
 Total energy in the final basis set = -2595.9520865222
 
 --------------------------------------------------------------
 
                    Orbital Energies (a.u.)
 --------------------------------------------------------------
 
 Alpha MOs
 -- Occupied --
-89.164 -89.102 -89.101 -89.085 -14.498 -14.491 -14.457 -14.446
-14.438 -10.375 -10.373 -10.368 -10.365 -10.345 -10.344 -10.343
-10.337 -10.332 -10.329 -10.329 -10.328 -10.328 -10.326 -10.322
-10.318 -10.314 -10.304 -10.297  -8.168  -8.111  -8.111  -8.093
 -6.117  -6.112  -6.111  -6.060  -6.060  -6.056  -6.056  -6.054
 -6.053  -6.042  -6.038  -6.034  -1.146  -1.081  -1.069  -1.052
 -1.024  -1.016  -0.954  -0.946  -0.913  -0.910  -0.907  -0.884
 -0.862  -0.844  -0.829  -0.807  -0.777  -0.754  -0.744  -0.727
 -0.724  -0.694  -0.689  -0.678  -0.649  -0.640  -0.624  -0.621
 -0.609  -0.598  -0.582  -0.576  -0.570  -0.566  -0.541  -0.535
 -0.527  -0.522  -0.519  -0.512  -0.511  -0.504  -0.496  -0.492
 -0.485  -0.480  -0.477  -0.463  -0.458  -0.449  -0.437  -0.434
 -0.428  -0.423  -0.405  -0.396  -0.384  -0.372  -0.371  -0.370
 -0.368  -0.359  -0.345  -0.336  -0.326  -0.317  -0.268
 -- Virtual --
 -0.061  -0.013   0.022   0.035   0.044   0.056   0.063   0.066
  0.070   0.092   0.105   0.108   0.115   0.119   0.130   0.132
  0.142   0.146   0.149   0.165   0.169   0.170   0.172   0.178
  0.190   0.194   0.203   0.212   0.218   0.229   0.231   0.244
  0.253   0.257   0.265   0.267   0.271   0.274   0.283   0.291
  0.296   0.300   0.302   0.304   0.312   0.317   0.321   0.323
  0.325   0.330   0.338   0.338   0.342   0.347   0.350   0.361
  0.363   0.366   0.369   0.373   0.378   0.380   0.382   0.387
  0.390   0.391   0.394   0.399   0.403   0.406   0.407   0.412
  0.415   0.419   0.422   0.427   0.433   0.438   0.439   0.442
  0.446   0.451   0.454   0.456   0.458   0.461   0.465   0.465
  0.467   0.471   0.474   0.478   0.482   0.485   0.485   0.490
  0.491   0.498   0.500   0.503   0.504   0.511   0.516   0.521
  0.523   0.526   0.532   0.538   0.542   0.548   0.550   0.553
  0.554   0.563   0.567   0.580   0.586   0.590   0.595   0.597
  0.602   0.610   0.620   0.623   0.632   0.634   0.638   0.647
  0.652   0.656   0.660   0.662   0.667   0.673   0.675   0.682
  0.685   0.689   0.689   0.700   0.711   0.721   0.722   0.729
  0.732   0.737   0.741   0.744   0.746   0.748   0.758   0.764
  0.765   0.768   0.774   0.778   0.779   0.789   0.791   0.797
  0.800   0.803   0.810   0.816   0.820   0.823   0.825   0.829
  0.834   0.842   0.846   0.853   0.856   0.860   0.863   0.867
  0.870   0.874   0.880   0.883   0.893   0.895   0.905   0.908
  0.917   0.924   0.929   0.930   0.931   0.938   0.945   0.952
  0.954   0.964   0.967   0.973   0.980   0.981   0.985   0.991
  0.997   1.001   1.008   1.013   1.020   1.025   1.028   1.030
  1.035   1.039   1.048   1.057   1.058   1.062   1.071   1.079
  1.087   1.090   1.093   1.101   1.103   1.107   1.114   1.122
  1.130   1.134   1.137   1.141   1.151   1.157   1.170   1.171
  1.179   1.180   1.186   1.189   1.198   1.204   1.215   1.220
  1.229   1.234   1.242   1.251   1.257   1.260   1.264   1.270
  1.285   1.288   1.292   1.301   1.306   1.313   1.320   1.327
  1.336   1.344   1.351   1.355   1.363   1.365   1.381   1.383
  1.390   1.394   1.405   1.410   1.419   1.425   1.427   1.431
  1.439   1.444   1.452   1.454   1.462   1.475   1.483   1.489
  1.495   1.500   1.507   1.513   1.523   1.529   1.532   1.538
  1.548   1.560   1.565   1.569   1.579   1.583   1.586   1.589
  1.598   1.610   1.616   1.622   1.622   1.635   1.640   1.645
  1.651   1.654   1.657   1.662   1.671   1.673   1.676   1.681
  1.687   1.693   1.697   1.704   1.708   1.720   1.722   1.730
  1.740   1.746   1.761   1.769   1.771   1.776   1.777   1.784
  1.796   1.805   1.814   1.825   1.830   1.842   1.855   1.866
  1.872   1.877   1.881   1.892   1.894   1.903   1.914   1.923
  1.925   1.931   1.941   1.955   1.959   1.968   1.973   1.975
  1.990   1.993   2.004   2.006   2.010   2.017   2.027   2.032
  2.041   2.055   2.059   2.068   2.077   2.084   2.092   2.107
  2.114   2.114   2.125   2.132   2.148   2.151   2.160   2.161
  2.173   2.176   2.185   2.189   2.202   2.219   2.223   2.225
  2.238   2.243   2.250   2.256   2.262   2.266   2.273   2.281
  2.294   2.303   2.321   2.338   2.339   2.350   2.358   2.365
  2.369   2.375   2.380   2.383   2.394   2.396   2.399   2.411
  2.420   2.424   2.429   2.438   2.444   2.449   2.454   2.459
  2.467   2.478   2.482   2.485   2.495   2.504   2.508   2.520
  2.525   2.533   2.536   2.542   2.553   2.559   2.561   2.577
  2.585   2.592   2.596   2.600   2.614   2.617   2.622   2.628
  2.634   2.644   2.650   2.654   2.662   2.666   2.672   2.696
  2.711   2.726   2.728   2.737   2.747   2.762   2.766   2.769
  2.774   2.781   2.789   2.789   2.796   2.798   2.803   2.812
  2.815   2.825   2.833   2.842   2.857   2.860   2.863   2.876
  2.879   2.889   2.902   2.908   2.909   2.924   2.933   2.935
  2.939   2.945   2.946   2.952   2.955   2.966   2.972   2.975
  2.978   2.980   2.996   2.999   3.005   3.009   3.019   3.023
  3.026   3.032   3.039   3.045   3.051   3.060   3.061   3.066
  3.067   3.075   3.081   3.085   3.088   3.093   3.098   3.105
  3.112   3.114   3.117   3.121   3.124   3.129   3.135   3.139
  3.149   3.157   3.159   3.164   3.166   3.169   3.171   3.179
  3.182   3.188   3.193   3.197   3.199   3.202   3.204   3.206
  3.212   3.218   3.224   3.226   3.233   3.237   3.241   3.247
  3.251   3.257   3.260   3.266   3.267   3.272   3.274   3.285
  3.292   3.295   3.302   3.304   3.307   3.311   3.315   3.325
  3.330   3.333   3.338   3.343   3.349   3.354   3.360   3.365
  3.374   3.381   3.386   3.390   3.397   3.408   3.414   3.417
  3.424   3.426   3.438   3.442   3.452   3.456   3.464   3.468
  3.474   3.476   3.481   3.485   3.492   3.497   3.503   3.515
  3.521   3.525   3.530   3.532   3.538   3.557   3.561   3.565
  3.574   3.581   3.591   3.595   3.606   3.610   3.616   3.625
  3.630   3.642   3.647   3.661   3.664   3.670   3.683   3.688
  3.696   3.707   3.711   3.728   3.732   3.745   3.750   3.756
  3.763   3.777   3.782   3.785   3.797   3.799   3.800   3.806
  3.814   3.821   3.828   3.832   3.839   3.848   3.855   3.860
  3.866   3.881   3.881   3.895   3.904   3.914   3.921   3.933
  3.934   3.939   3.945   3.951   3.954   3.966   3.972   3.975
  3.981   3.985   3.998   4.003   4.014   4.021   4.029   4.038
  4.051   4.063   4.068   4.072   4.082   4.087   4.099   4.113
  4.115   4.128   4.142   4.149   4.152   4.160   4.169   4.172
  4.184   4.187   4.191   4.198   4.204   4.221   4.224   4.234
  4.258   4.260   4.265   4.271   4.275   4.286   4.304   4.312
  4.321   4.333   4.342   4.351   4.361   4.371   4.374   4.383
  4.385   4.401   4.409   4.413   4.420   4.435   4.444   4.451
  4.458   4.465   4.470   4.482   4.500   4.509   4.524   4.529
  4.542   4.552   4.555   4.566   4.570   4.581   4.597   4.603
  4.618   4.625   4.632   4.642   4.651   4.664   4.675   4.676
  4.684   4.701   4.723   4.738   4.748   4.772   4.778   4.782
  4.808   4.809   4.832   4.835   4.842   4.847   4.851   4.858
  4.876   4.884   4.903   4.922   4.926   4.931   4.940   4.942
  4.951   4.954   4.960   4.970   4.972   4.978   5.002   5.009
  5.019   5.020   5.037   5.043   5.057   5.068   5.088   5.091
  5.101   5.114   5.128   5.134   5.149   5.170   5.172   5.183
  5.202   5.219   5.231   5.234   5.244   5.266   5.269   5.275
  5.295   5.304   5.307   5.324   5.334   5.364   5.388   5.408
  5.418   5.420   5.442   5.449   5.466   5.473   5.500   5.519
  5.525   5.535   5.553   5.576   5.600   5.636   5.648   5.657
  5.677   5.698   5.708   5.717   5.733   5.758   5.775   5.806
  5.820   5.841   5.867   5.914   5.948   5.980   5.993   6.052
  6.101   6.120   6.148   6.166   6.170   6.190   6.237   6.291
  6.320   6.334   6.391   6.400   6.468   6.794   7.006   7.976
  8.805   9.792  10.153  10.905  11.130  11.168  11.563  12.008
 12.150  12.316  12.468  12.709  12.853  13.057  13.129  13.377
 13.438  13.495  13.668  13.924  14.311  14.361  14.881
 --------------------------------------------------------------
 
          Ground-State Mulliken Net Atomic Charges

     Atom                 Charge (a.u.)
  ----------------------------------------
      1 C                    -0.065863
      2 C                    -0.105781
      3 N                    -0.163665
      4 C                    -0.142050
      5 C                    -0.095914
      6 C                     0.106753
      7 C                     0.039000
      8 C                    -0.092439
      9 C                     0.042908
     10 N                    -0.181901
     11 N                    -0.290096
     12 C                     0.012577
     13 C                     0.079683
     14 S                     0.411683
     15 N                    -0.272692
     16 C                    -0.008873
     17 S                     0.131085
     18 C                    -0.035808
     19 C                    -0.026963
     20 S                     0.079530
     21 C                     0.045097
     22 C                     0.032354
     23 C                    -0.158710
     24 C                    -0.168386
     25 N                    -0.190283
     26 S                     0.109419
     27 C                    -0.073395
     28 C                    -0.205807
     29 H                     0.121134
     30 H                     0.129733
     31 H                     0.122100
     32 H                     0.133674
     33 H                     0.132644
     34 H                     0.133352
     35 H                     0.144219
     36 H                     0.128559
     37 H                     0.143121
  ----------------------------------------
  Sum of atomic charges =     0.000000

 -----------------------------------------------------------------
                    Cartesian Multipole Moments
 -----------------------------------------------------------------
    Charge (ESU x 10^10)
                 0.0000
    Dipole Moment (Debye)
         X       1.6992      Y      -0.0741      Z      -1.2380
       Tot       2.1037
    Quadrupole Moments (Debye-Ang)
        XX    -170.4985     XY     -16.0776     YY    -172.5103
        XZ       9.2671     YZ      -0.3108     ZZ    -186.7333
    Octopole Moments (Debye-Ang^2)
       XXX     227.0536    XXY      39.9670    XYY      39.9957
       YYY       1.7137    XXZ     -96.4300    XYZ      32.5370
       YYZ      11.1113    XZZ     -16.1589    YZZ      -4.0203
       ZZZ       7.7313
    Hexadecapole Moments (Debye-Ang^3)
      XXXX  -17612.4349   XXXY   -1121.5801   XXYY   -3603.5432
      XYYY      76.1665   YYYY   -3437.2104   XXXZ     531.4553
      XXYZ     -10.1588   XYYZ      23.6121   YYYZ      42.3928
      XXZZ   -3376.3054   XYZZ     -31.6239   YYZZ    -717.7699
      XZZZ     -11.0136   YZZZ     -20.5362   ZZZZ    -545.8016
 -----------------------------------------------------------------
 Calculating analytic gradient of the SCF energy
 K construction time:  CPU 3933.83 s  wall 986.22 s
 Gradient of SCF Energy
            1           2           3           4           5           6
    1   0.0010307  -0.0046142  -0.0092145   0.0018942   0.0108146   0.0059125
    2   0.0053765  -0.0000594  -0.0062641  -0.0018521   0.0038295  -0.0031321
    3  -0.0055377  -0.0006070   0.0062467   0.0026748  -0.0050203   0.0030964
            7           8           9          10          11          12
    1  -0.0139404   0.0055245  -0.0165423  -0.0076595  -0.0108758   0.0225596
    2  -0.0077172  -0.0014604   0.0065886   0.0167691   0.0047232   0.0075795
    3   0.0010711  -0.0007460  -0.0017574  -0.0084159  -0.0027688  -0.0002631
           13          14          15          16          17          18
    1   0.0088186  -0.0003758   0.0094503   0.0013165  -0.0068584   0.0158070
    2  -0.0208093  -0.0132611   0.0044595  -0.0008388   0.0027576  -0.0060164
    3   0.0085191   0.0033731   0.0012901  -0.0014836  -0.0036038   0.0010226
           19          20          21          22          23          24
    1   0.0113537  -0.0090099  -0.0109691  -0.0053581  -0.0044132   0.0036006
    2   0.0082399   0.0145490  -0.0123215  -0.0089542   0.0086217  -0.0159076
    3   0.0044152   0.0045453  -0.0036172  -0.0020448   0.0006652  -0.0034694
           25          26          27          28          29          30
    1   0.0000707   0.0012672   0.0049370  -0.0042207  -0.0004253   0.0002372
    2   0.0086008   0.0028177   0.0016396  -0.0050111  -0.0008027   0.0007083
    3   0.0018139   0.0005708   0.0003101  -0.0013414   0.0007053  -0.0006184
           31          32          33          34          35          36
    1  -0.0008846  -0.0021773   0.0010218  -0.0005156   0.0015495   0.0004724
    2   0.0020082  -0.0011295   0.0021101   0.0009623   0.0036241   0.0004888
    3  -0.0014363   0.0019753  -0.0008513   0.0000319   0.0009134   0.0003209
           37
    1   0.0004160
    2  -0.0009169
    3   0.0000214
 Max gradient component =       2.256E-02
 RMS gradient           =       6.678E-03
 Gradient time:  CPU 4561.01 s  wall 1144.27 s
 Geometry Optimization Parameters
   NAtoms,    NIC,     NZ,  NCons,   NDum,   NFix, NCnnct, MaxDiis
       37     280       0       0       0       0       0       0

 Cartesian Hessian Update
 Hessian Updated using BFGS Update


** GEOMETRY OPTIMIZATION IN DELOCALIZED INTERNAL COORDINATES **
   Searching for a Minimum

   Optimization Cycle:   2

                       Coordinates (Angstroms)
     ATOM                X               Y               Z
      1  C        -7.6526260779    0.3116378544   -0.3877864227
      2  C        -6.9330452861    1.1351694408   -1.2342270882
      3  N        -7.0820899734   -0.5133994316    0.4934081089
      4  C        -5.5515363410    1.0974230409   -1.1758005040
      5  C        -5.7438552552   -0.5318145578    0.5348751706
      6  C        -4.9143223877    0.2451923476   -0.2736843904
      7  C        -3.4521212664    0.1916483682   -0.1802545132
      8  C        -2.6447776112    1.2863469753   -0.4280633199
      9  C        -2.7212046805   -0.9753158908    0.1659735895
     10  N        -1.2920593274    1.3471325129   -0.3896808699
     11  N        -3.2156175628   -2.1795431430    0.4458799794
     12  C        -1.2565956950   -0.9358068884    0.2400757757
     13  C        -0.5763701202    0.2745248843   -0.0598228251
     14  S        -1.9478690434   -3.1427181131    0.7933440526
     15  N        -0.7174311178   -2.0960772952    0.6016283092
     16  C         0.8643975457    0.4277749892   -0.0269823091
     17  S         1.9516117409   -0.8664473097   -0.3416929517
     18  C         1.5781691905    1.5788511799    0.2092427851
     19  C         3.3604646841    0.1182383872   -0.1161517848
     20  S         1.1110832959    3.2441168257    0.5718865098
     21  C         2.9738378561    1.4049593602    0.1657402925
     22  C         4.6951086810   -0.4189251196   -0.2249396362
     23  C         2.8134500371    3.6582903149    0.6626182334
     24  C         3.6704854260    2.6315993333    0.4342716329
     25  N         5.7711771157    0.3123818423   -0.0693510712
     26  S         5.0119110105   -2.0872532754   -0.5660160766
     27  C         6.8966267826   -0.4512466472   -0.2265947800
     28  C         6.6896826604   -1.7695388770   -0.4991126003
     29  H        -8.7365462418    0.3018079469   -0.4037441324
     30  H        -7.4421366974    1.7892940463   -1.9286129148
     31  H        -4.9772244842    1.7258426243   -1.8466246669
     32  H        -5.3331790910   -1.2096034520    1.2730556554
     33  H        -3.0975570429    2.2398092535   -0.6831687945
     34  H         3.0816707850    4.6804459747    0.8836697148
     35  H         4.7439922365    2.7463470053    0.4560163814
     36  H         7.8675329039    0.0117450788   -0.1326394728
     37  H         7.4189568335   -2.5450699841   -0.6607950270
   Point Group: c1    Number of degrees of freedom:   105


   Energy is  -2595.952086522

 Hessian Updated using BFGS Update

105 Hessian modes will be used to form the next step
  Hessian Eigenvalues:
     0.012834    0.013431    0.013999    0.014936    0.015255    0.015770
     0.015818    0.016083    0.016234    0.016710    0.017410    0.017621
     0.018112    0.018395    0.018709    0.018988    0.019277    0.019621
     0.020559    0.020684    0.020696    0.020915    0.021122    0.021951
     0.022045    0.022224    0.022329    0.022373    0.022407    0.023482
     0.023589    0.023724    0.023863    0.024362    0.157175    0.159985
     0.159994    0.159996    0.159998    0.160000    0.160000    0.160000
     0.160529    0.219661    0.224051    0.225036    0.225981    0.232024
     0.234505    0.238153    0.247641    0.248566    0.249450    0.249881
     0.249943    0.249967    0.249971    0.249976    0.249978    0.249980
     0.249991    0.249996    0.249999    0.270897    0.282930    0.297807
     0.314772    0.322221    0.330614    0.342038    0.346533    0.350780
     0.351278    0.352764    0.354110    0.354615    0.355643    0.356601
     0.357770    0.359659    0.375827    0.384829    0.390148    0.401672
     0.409063    0.409549    0.414339    0.415059    0.425746    0.431635
     0.441176    0.455951    0.459928    0.467384    0.477482    0.479369
     0.479786    0.497172    0.500527    0.512356    0.518827    0.528807
     0.547440    0.573507    0.591950

 Minimum Search - Taking Simple RFO Step
 Searching for Lamda that Minimizes Along All modes
 Value Taken    Lamda =  -0.01105726
 Calculated Step too Large.  Step scaled by  0.784124
 Step Taken.  Stepsize is  0.300000

                             Maximum     Tolerance    Cnvgd?
         Gradient           0.015631      0.000300      NO
         Displacement       0.141238      0.001200      NO
         Energy change     -0.026064      0.000001      NO


 New Cartesian Coordinates Obtained by Inverse Iteration

 Displacement from previous Coordinates is:  1.391293
 ----------------------------------------------------------------
             Standard Nuclear Orientation (Angstroms)
    I     Atom           X                Y                Z
 ----------------------------------------------------------------
    1      C      -7.6316658740     0.3657735910    -0.2967015073
    2      C      -6.9186610345     1.2049201339    -1.1356611596
    3      N      -7.0501891117    -0.4920451401     0.5368396122
    4      C      -5.5400140795     1.1463813800    -1.1146323242
    5      C      -5.7215216300    -0.5376768209     0.5493421316
    6      C      -4.9019559434     0.2569704606    -0.2530605477
    7      C      -3.4343329900     0.1804314542    -0.1862789967
    8      C      -2.6416549847     1.2850681901    -0.3717099559
    9      C      -2.7117638082    -1.0200255058     0.0728851227
   10      N      -1.2902675500     1.3250676150    -0.3520793103
   11      N      -3.2045598043    -2.2369132676     0.2895478765
   12      C      -1.2792167081    -0.9904816467     0.1176259481
   13      C      -0.5921433540     0.2392273328    -0.1167918633
   14      S      -1.9470445498    -3.2207694683     0.5379698934
   15      N      -0.7334291252    -2.1716626946     0.3798948689
   16      C       0.8500667393     0.3835781512    -0.0666635149
   17      S       1.9611508044    -0.9174946249    -0.2911457304
   18      C       1.5486429185     1.5485139714     0.1324796327
   19      C       3.3464053472     0.0976008545    -0.1042215140
   20      S       1.0791059425     3.2013672759     0.3993626250
   21      C       2.9551531720     1.3994004013     0.1243860281
   22      C       4.6945987983    -0.4205855217    -0.1666693480
   23      C       2.7680244579     3.6501670502     0.5314629126
   24      C       3.6378973984     2.6414844634     0.3594606775
   25      N       5.7543424275     0.3294644707    -0.0355979935
   26      S       5.0522842048    -2.1015698061    -0.4177744459
   27      C       6.8943391082    -0.4119349406    -0.1388318150
   28      C       6.7250450372    -1.7416295862    -0.3439777137
   29      H      -8.7151433886     0.3762916007    -0.2901563015
   30      H      -7.4386898667     1.8836859251    -1.7960605781
   31      H      -4.9614299916     1.7763409302    -1.7765650084
   32      H      -5.2894999061    -1.2426387874     1.2462594582
   33      H      -3.1039564802     2.2497875018    -0.5445120233
   34      H       3.0148446239     4.6829779128     0.7201548862
   35      H       4.7092911285     2.7459995547     0.3945279539
   36      H       7.8529320559     0.0768226111    -0.0590504953
   37      H       7.4750094982    -2.5040754198    -0.4581174412
 ----------------------------------------------------------------
 Molecular Point Group                 C1    NOp =  1
 Largest Abelian Subgroup              C1    NOp =  1
 Nuclear Repulsion Energy =  2963.7062385022 hartrees
 There are      111 alpha and      111 beta electrons
 Applying Cartesian multipole field
    Component          Value
    ---------          -----
     (2,0,0)        1.00000E-12
     (0,2,0)        2.00000E-11
     (0,0,2)       -3.00000E-11
 Nucleus-field energy     =     0.0000000627 hartrees
 Requested basis set is cc-pVTZ
 There are 342 shells and 982 basis functions
 A cutoff of  1.0D-11 yielded  29178 shell pairs
 There are    231444 function pairs (    302319 Cartesian)
 Smallest overlap matrix eigenvalue = 2.32E-05
 Guess MOs from SCF MO coefficient file
 Reading MOs from coefficient file
 Reading MOs from coefficient file
 Long-range K will be added via erf
 Coulomb attenuation parameter = 0.2 bohr**(-1)
 A restricted hybrid HF-DFT SCF calculation will be
 performed using Pulay DIIS extrapolation
 Exchange:     0.2220 Hartree-Fock + 1.0000 wB97X-D + LR-HF
 Correlation:  1.0000 wB97X-D
 Using SG-1 standard quadrature grid
 Dispersion:   Grimme D
 SCF converges when DIIS error is below 1.0E-08
 Geometry optimization detected.  Setting ReadMinima to 0
 Setting SaveMinima to 0
 using 4 threads for integral computing 
 using 4 threads for integral computing 
 K construction time:  CPU 1557.72 s  wall 391.41 s
 -------------------------------------------------------
 OpenMP BLAS3 based DFT computing Module                
 Release: version 1.0, May 2013, Q-Chem Inc. Pittsburgh 
 -------------------------------------------------------
 ---------------------------------------
  Cycle       Energy         DIIS Error
 ---------------------------------------
    1   -2595.9743066536      8.98E-04
 K construction time:  CPU 1561.33 s  wall 392.36 s
    2   -2595.9551187768      9.80E-05
 K construction time:  CPU 1320.06 s  wall 331.45 s
    3   -2595.9569097887      8.53E-05
 K construction time:  CPU 1180.49 s  wall 296.59 s
    4   -2595.9577139020      2.86E-05
 K construction time:  CPU 1099.55 s  wall 276.03 s
    5   -2595.9578511902      1.34E-05
 K construction time:  CPU 1131.42 s  wall 284.85 s
    6   -2595.9578758203      5.77E-06
 K construction time:  CPU 1024.78 s  wall 256.95 s
    7   -2595.9578802366      2.30E-06
 K construction time:  CPU 882.00 s  wall 221.42 s
    8   -2595.9578812305      9.43E-07
 K construction time:  CPU 934.28 s  wall 234.30 s
    9   -2595.9578814867      3.63E-07
 K construction time:  CPU 776.92 s  wall 194.74 s
   10   -2595.9578815275      1.82E-07
 K construction time:  CPU 689.38 s  wall 172.97 s
   11   -2595.9578815377      8.89E-08
 K construction time:  CPU 666.23 s  wall 167.67 s
   12   -2595.9578815404      3.79E-08
 K construction time:  CPU 636.77 s  wall 159.70 s
   13   -2595.9578815395      1.41E-08
 K construction time:  CPU 475.37 s  wall 119.34 s
   14   -2595.9578815353      7.23E-09 Convergence criterion met
 ---------------------------------------
 SCF time:  CPU 18586.93 s  wall 4684.76 s
 SCF   energy in the final basis set = -2595.9578815353
 Total energy in the final basis set = -2595.9578815353
 
 --------------------------------------------------------------
 
                    Orbital Energies (a.u.)
 --------------------------------------------------------------
 
 Alpha MOs
 -- Occupied --
-89.164 -89.101 -89.100 -89.083 -14.495 -14.489 -14.454 -14.445
-14.436 -10.375 -10.371 -10.364 -10.362 -10.345 -10.342 -10.341
-10.335 -10.329 -10.328 -10.327 -10.327 -10.326 -10.323 -10.320
-10.316 -10.314 -10.303 -10.296  -8.168  -8.110  -8.110  -8.091
 -6.118  -6.112  -6.112  -6.059  -6.059  -6.056  -6.055  -6.053
 -6.053  -6.041  -6.037  -6.033  -1.152  -1.083  -1.074  -1.054
 -1.024  -1.016  -0.956  -0.947  -0.913  -0.911  -0.907  -0.885
 -0.862  -0.845  -0.829  -0.807  -0.777  -0.754  -0.745  -0.727
 -0.724  -0.695  -0.689  -0.678  -0.649  -0.641  -0.624  -0.622
 -0.609  -0.597  -0.583  -0.577  -0.570  -0.567  -0.541  -0.536
 -0.527  -0.523  -0.518  -0.514  -0.512  -0.504  -0.497  -0.493
 -0.487  -0.482  -0.478  -0.464  -0.457  -0.449  -0.437  -0.433
 -0.428  -0.423  -0.402  -0.397  -0.384  -0.372  -0.371  -0.370
 -0.366  -0.359  -0.343  -0.337  -0.326  -0.318  -0.268
 -- Virtual --
 -0.058  -0.012   0.024   0.037   0.046   0.058   0.064   0.067
  0.072   0.098   0.107   0.111   0.116   0.120   0.131   0.134
  0.142   0.147   0.150   0.167   0.169   0.170   0.172   0.179
  0.193   0.194   0.202   0.212   0.218   0.229   0.233   0.245
  0.253   0.256   0.264   0.267   0.272   0.273   0.287   0.292
  0.297   0.300   0.303   0.304   0.311   0.319   0.322   0.323
  0.330   0.331   0.338   0.339   0.343   0.349   0.351   0.360
  0.363   0.366   0.369   0.374   0.379   0.380   0.384   0.387
  0.390   0.393   0.397   0.401   0.405   0.407   0.409   0.413
  0.417   0.423   0.423   0.428   0.435   0.439   0.440   0.442
  0.448   0.452   0.455   0.458   0.459   0.462   0.466   0.468
  0.468   0.473   0.476   0.480   0.483   0.486   0.488   0.491
  0.494   0.500   0.502   0.504   0.508   0.513   0.517   0.523
  0.524   0.526   0.533   0.541   0.545   0.549   0.551   0.554
  0.557   0.564   0.570   0.581   0.586   0.591   0.596   0.601
  0.603   0.613   0.622   0.624   0.638   0.639   0.641   0.652
  0.653   0.658   0.665   0.666   0.668   0.674   0.678   0.682
  0.685   0.693   0.695   0.701   0.715   0.721   0.725   0.732
  0.737   0.738   0.743   0.746   0.746   0.749   0.758   0.765
  0.769   0.771   0.775   0.778   0.783   0.791   0.793   0.799
  0.804   0.807   0.811   0.818   0.823   0.825   0.827   0.831
  0.837   0.841   0.849   0.856   0.857   0.861   0.864   0.872
  0.873   0.875   0.881   0.883   0.898   0.903   0.907   0.911
  0.915   0.925   0.931   0.932   0.936   0.945   0.949   0.953
  0.957   0.967   0.969   0.973   0.982   0.983   0.988   0.992
  1.001   1.002   1.008   1.018   1.021   1.027   1.028   1.032
  1.037   1.041   1.049   1.058   1.061   1.064   1.073   1.083
  1.087   1.090   1.092   1.098   1.104   1.111   1.116   1.124
  1.133   1.135   1.139   1.145   1.155   1.158   1.172   1.177
  1.179   1.184   1.185   1.194   1.200   1.207   1.218   1.226
  1.232   1.236   1.248   1.253   1.259   1.264   1.267   1.272
  1.284   1.290   1.297   1.304   1.309   1.314   1.320   1.330
  1.339   1.348   1.354   1.359   1.367   1.367   1.384   1.386
  1.393   1.397   1.404   1.415   1.419   1.425   1.428   1.434
  1.442   1.449   1.454   1.456   1.463   1.477   1.485   1.490
  1.498   1.500   1.508   1.516   1.530   1.532   1.535   1.541
  1.548   1.564   1.566   1.573   1.583   1.592   1.593   1.594
  1.601   1.614   1.618   1.624   1.626   1.638   1.644   1.647
  1.655   1.658   1.660   1.663   1.673   1.676   1.681   1.685
  1.688   1.696   1.699   1.709   1.714   1.720   1.724   1.731
  1.745   1.752   1.768   1.771   1.773   1.777   1.782   1.786
  1.798   1.804   1.814   1.830   1.835   1.843   1.859   1.871
  1.879   1.881   1.887   1.894   1.898   1.909   1.919   1.923
  1.928   1.932   1.943   1.956   1.960   1.973   1.978   1.981
  1.994   1.996   2.004   2.011   2.015   2.021   2.030   2.033
  2.045   2.061   2.065   2.073   2.080   2.086   2.093   2.112
  2.115   2.123   2.129   2.133   2.153   2.157   2.160   2.168
  2.175   2.181   2.193   2.194   2.204   2.220   2.229   2.232
  2.238   2.245   2.254   2.257   2.266   2.272   2.275   2.285
  2.302   2.305   2.327   2.341   2.347   2.355   2.361   2.367
  2.371   2.380   2.382   2.389   2.395   2.401   2.401   2.419
  2.423   2.432   2.435   2.439   2.446   2.455   2.459   2.462
  2.471   2.481   2.485   2.488   2.500   2.507   2.509   2.522
  2.527   2.534   2.539   2.544   2.554   2.565   2.572   2.580
  2.587   2.598   2.604   2.608   2.616   2.618   2.627   2.630
  2.635   2.651   2.656   2.661   2.666   2.669   2.674   2.700
  2.716   2.730   2.734   2.743   2.755   2.764   2.772   2.774
  2.777   2.784   2.789   2.790   2.794   2.800   2.806   2.812
  2.821   2.831   2.835   2.846   2.859   2.863   2.869   2.880
  2.883   2.892   2.905   2.909   2.916   2.927   2.936   2.940
  2.943   2.949   2.950   2.954   2.958   2.967   2.973   2.978
  2.979   2.985   2.998   3.004   3.009   3.014   3.020   3.025
  3.031   3.037   3.044   3.046   3.055   3.061   3.066   3.067
  3.072   3.079   3.083   3.090   3.091   3.096   3.101   3.103
  3.112   3.115   3.121   3.123   3.129   3.132   3.138   3.141
  3.153   3.159   3.165   3.167   3.170   3.174   3.178   3.182
  3.184   3.188   3.196   3.198   3.200   3.207   3.207   3.214
  3.216   3.222   3.225   3.226   3.234   3.241   3.247   3.249
  3.255   3.259   3.262   3.268   3.271   3.274   3.281   3.287
  3.292   3.296   3.304   3.306   3.308   3.315   3.317   3.329
  3.333   3.336   3.341   3.348   3.352   3.357   3.363   3.369
  3.378   3.382   3.389   3.390   3.399   3.412   3.417   3.419
  3.424   3.430   3.442   3.447   3.457   3.461   3.467   3.470
  3.473   3.480   3.487   3.489   3.496   3.500   3.508   3.517
  3.521   3.529   3.536   3.539   3.546   3.563   3.567   3.572
  3.576   3.584   3.595   3.599   3.606   3.613   3.623   3.629
  3.637   3.646   3.654   3.669   3.672   3.677   3.687   3.694
  3.702   3.716   3.721   3.731   3.735   3.750   3.755   3.760
  3.769   3.783   3.787   3.790   3.802   3.804   3.807   3.812
  3.821   3.826   3.835   3.841   3.848   3.856   3.859   3.866
  3.871   3.881   3.889   3.903   3.914   3.920   3.924   3.938
  3.941   3.944   3.950   3.958   3.961   3.967   3.976   3.979
  3.986   3.991   4.003   4.009   4.016   4.026   4.036   4.042
  4.060   4.071   4.079   4.083   4.087   4.094   4.107   4.121
  4.131   4.140   4.147   4.157   4.165   4.173   4.181   4.186
  4.188   4.192   4.205   4.207   4.213   4.232   4.234   4.245
  4.267   4.270   4.271   4.281   4.285   4.296   4.310   4.321
  4.329   4.339   4.346   4.354   4.366   4.377   4.384   4.393
  4.393   4.411   4.417   4.420   4.421   4.436   4.450   4.458
  4.466   4.472   4.481   4.490   4.507   4.521   4.532   4.536
  4.547   4.558   4.562   4.572   4.577   4.584   4.603   4.607
  4.623   4.634   4.639   4.650   4.663   4.672   4.682   4.690
  4.693   4.709   4.729   4.745   4.752   4.783   4.788   4.795
  4.813   4.821   4.838   4.845   4.850   4.856   4.862   4.863
  4.878   4.891   4.908   4.932   4.935   4.941   4.946   4.950
  4.955   4.964   4.971   4.979   4.983   4.986   5.008   5.015
  5.027   5.032   5.045   5.055   5.068   5.080   5.094   5.100
  5.115   5.121   5.140   5.146   5.157   5.176   5.180   5.197
  5.208   5.232   5.236   5.242   5.251   5.265   5.280   5.284
  5.315   5.317   5.326   5.335   5.351   5.381   5.407   5.414
  5.428   5.439   5.456   5.459   5.480   5.486   5.514   5.531
  5.533   5.550   5.557   5.589   5.610   5.654   5.658   5.666
  5.693   5.705   5.720   5.732   5.753   5.775   5.801   5.821
  5.849   5.876   5.887   5.935   5.953   5.995   6.012   6.082
  6.130   6.145   6.164   6.179   6.188   6.215   6.258   6.312
  6.340   6.353   6.400   6.412   6.497   6.844   7.032   7.994
  8.861   9.829  10.166  10.929  11.197  11.219  11.678  12.029
 12.228  12.534  12.563  12.785  12.937  13.132  13.172  13.438
 13.538  13.572  13.839  14.004  14.290  14.658  14.974
 --------------------------------------------------------------
 
          Ground-State Mulliken Net Atomic Charges

     Atom                 Charge (a.u.)
  ----------------------------------------
      1 C                    -0.068707
      2 C                    -0.103289
      3 N                    -0.158057
      4 C                    -0.145755
      5 C                    -0.099015
      6 C                     0.106441
      7 C                     0.035752
      8 C                    -0.094454
      9 C                     0.042151
     10 N                    -0.178242
     11 N                    -0.288481
     12 C                     0.021703
     13 C                     0.082913
     14 S                     0.417044
     15 N                    -0.278258
     16 C                    -0.026749
     17 S                     0.131070
     18 C                    -0.024232
     19 C                    -0.026472
     20 S                     0.084094
     21 C                     0.033937
     22 C                     0.034634
     23 C                    -0.160185
     24 C                    -0.163429
     25 N                    -0.186417
     26 S                     0.104157
     27 C                    -0.074030
     28 C                    -0.204174
     29 H                     0.120715
     30 H                     0.128474
     31 H                     0.123721
     32 H                     0.133037
     33 H                     0.131642
     34 H                     0.132776
     35 H                     0.143542
     36 H                     0.128525
     37 H                     0.143615
  ----------------------------------------
  Sum of atomic charges =     0.000000

 -----------------------------------------------------------------
                    Cartesian Multipole Moments
 -----------------------------------------------------------------
    Charge (ESU x 10^10)
                 0.0000
    Dipole Moment (Debye)
         X       1.8049      Y      -0.0453      Z      -1.1541
       Tot       2.1428
    Quadrupole Moments (Debye-Ang)
        XX    -170.4018     XY     -15.9270     YY    -171.7757
        XZ       9.4933     YZ      -0.7222     ZZ    -187.1723
    Octopole Moments (Debye-Ang^2)
       XXX     233.7118    XXY      45.8667    XYY      36.1819
       YYY       8.9421    XXZ     -82.4517    XYZ      27.5993
       YYZ      12.7839    XZZ     -14.1962    YZZ      -1.3726
       ZZZ      19.6813
    Hexadecapole Moments (Debye-Ang^3)
      XXXX  -17516.4863   XXXY   -1112.2986   XXYY   -3595.2246
      XYYY     103.8388   YYYY   -3474.2524   XXXZ     490.3594
      XXYZ     -21.6621   XYYZ      15.4628   YYYZ      41.7281
      XXZZ   -3378.5884   XYZZ     -18.3606   YYZZ    -717.7635
      XZZZ     -51.8909   YZZZ      -5.8013   ZZZZ    -445.8688
 -----------------------------------------------------------------
 Calculating analytic gradient of the SCF energy
 K construction time:  CPU 2826.33 s  wall 708.46 s
 Gradient of SCF Energy
            1           2           3           4           5           6
    1   0.0004327  -0.0006667  -0.0018742   0.0000577   0.0031708   0.0012569
    2   0.0013792  -0.0003043  -0.0012803  -0.0001355   0.0006043  -0.0004706
    3  -0.0014333  -0.0002280   0.0012360   0.0007995  -0.0018440   0.0013347
            7           8           9          10          11          12
    1  -0.0025554   0.0040499  -0.0029148  -0.0032855   0.0005164   0.0050558
    2  -0.0023567  -0.0008410   0.0010826   0.0023673   0.0038123   0.0020983
    3   0.0000240   0.0002325  -0.0003206  -0.0032125  -0.0008172   0.0016906
           13          14          15          16          17          18
    1  -0.0022691   0.0007387  -0.0013660   0.0014824  -0.0037444   0.0038289
    2  -0.0067051  -0.0059115   0.0032855   0.0029137   0.0008415  -0.0034940
    3   0.0006438   0.0011023   0.0003468   0.0000777  -0.0023456   0.0020923
           19          20          21          22          23          24
    1   0.0056348  -0.0015124  -0.0052788  -0.0021896   0.0021828  -0.0008709
    2   0.0026942   0.0025042  -0.0014562  -0.0031674  -0.0014347  -0.0012379
    3   0.0010100   0.0005300  -0.0003209  -0.0009079  -0.0001209  -0.0008313
           25          26          27          28          29          30
    1   0.0004463   0.0008567   0.0011105  -0.0009162  -0.0000853   0.0003439
    2   0.0015644   0.0022517  -0.0010333  -0.0006871  -0.0002658   0.0002726
    3   0.0003995   0.0004495   0.0000222  -0.0002293   0.0003425   0.0000806
           31          32          33          34          35          36
    1  -0.0005652  -0.0013310   0.0002668   0.0001249  -0.0001647  -0.0001180
    2   0.0005239   0.0001046   0.0005126  -0.0001097   0.0018507   0.0001139
    3  -0.0000934   0.0004093  -0.0006907   0.0000747   0.0003762  -0.0000339
           37
    1   0.0001513
    2   0.0001135
    3   0.0001550
 Max gradient component =       6.705E-03
 RMS gradient           =       1.968E-03
 Gradient time:  CPU 3490.91 s  wall 875.43 s
 Geometry Optimization Parameters
   NAtoms,    NIC,     NZ,  NCons,   NDum,   NFix, NCnnct, MaxDiis
       37     280       0       0       0       0       0       0

 Cartesian Hessian Update
 Hessian Updated using BFGS Update


** GEOMETRY OPTIMIZATION IN DELOCALIZED INTERNAL COORDINATES **
   Searching for a Minimum

   Optimization Cycle:   3

                       Coordinates (Angstroms)
     ATOM                X               Y               Z
      1  C        -7.6316658740    0.3657735910   -0.2967015073
      2  C        -6.9186610345    1.2049201339   -1.1356611596
      3  N        -7.0501891117   -0.4920451401    0.5368396122
      4  C        -5.5400140795    1.1463813800   -1.1146323242
      5  C        -5.7215216300   -0.5376768209    0.5493421316
      6  C        -4.9019559434    0.2569704606   -0.2530605477
      7  C        -3.4343329900    0.1804314542   -0.1862789967
      8  C        -2.6416549847    1.2850681901   -0.3717099559
      9  C        -2.7117638082   -1.0200255058    0.0728851227
     10  N        -1.2902675500    1.3250676150   -0.3520793103
     11  N        -3.2045598043   -2.2369132676    0.2895478765
     12  C        -1.2792167081   -0.9904816467    0.1176259481
     13  C        -0.5921433540    0.2392273328   -0.1167918633
     14  S        -1.9470445498   -3.2207694683    0.5379698934
     15  N        -0.7334291252   -2.1716626946    0.3798948689
     16  C         0.8500667393    0.3835781512   -0.0666635149
     17  S         1.9611508044   -0.9174946249   -0.2911457304
     18  C         1.5486429185    1.5485139714    0.1324796327
     19  C         3.3464053472    0.0976008545   -0.1042215140
     20  S         1.0791059425    3.2013672759    0.3993626250
     21  C         2.9551531720    1.3994004013    0.1243860281
     22  C         4.6945987983   -0.4205855217   -0.1666693480
     23  C         2.7680244579    3.6501670502    0.5314629126
     24  C         3.6378973984    2.6414844634    0.3594606775
     25  N         5.7543424275    0.3294644707   -0.0355979935
     26  S         5.0522842048   -2.1015698061   -0.4177744459
     27  C         6.8943391082   -0.4119349406   -0.1388318150
     28  C         6.7250450372   -1.7416295862   -0.3439777137
     29  H        -8.7151433886    0.3762916007   -0.2901563015
     30  H        -7.4386898667    1.8836859251   -1.7960605781
     31  H        -4.9614299916    1.7763409302   -1.7765650084
     32  H        -5.2894999061   -1.2426387874    1.2462594582
     33  H        -3.1039564802    2.2497875018   -0.5445120233
     34  H         3.0148446239    4.6829779128    0.7201548862
     35  H         4.7092911285    2.7459995547    0.3945279539
     36  H         7.8529320559    0.0768226111   -0.0590504953
     37  H         7.4750094982   -2.5040754198   -0.4581174412
   Point Group: c1    Number of degrees of freedom:   105


   Energy is  -2595.957881535

 Hessian Updated using BFGS Update

105 Hessian modes will be used to form the next step
  Hessian Eigenvalues:
     0.011974    0.013238    0.013572    0.014024    0.015259    0.015805
     0.015918    0.016083    0.016245    0.016714    0.017427    0.017692
     0.018259    0.018393    0.018723    0.018993    0.019314    0.019619
     0.020574    0.020685    0.020703    0.020919    0.021107    0.021947
     0.022060    0.022225    0.022325    0.022380    0.022395    0.023481
     0.023590    0.023722    0.023859    0.024362    0.152637    0.159985
     0.159995    0.159998    0.159998    0.160000    0.160000    0.160111
     0.160520    0.218113    0.221118    0.224787    0.225446    0.231999
     0.234364    0.236556    0.247669    0.248532    0.249454    0.249926
     0.249953    0.249967    0.249972    0.249977    0.249980    0.249987
     0.249994    0.249999    0.259819    0.269466    0.297776    0.303512
     0.314633    0.322016    0.330212    0.341842    0.346538    0.350961
     0.351558    0.352771    0.354524    0.354719    0.355806    0.356693
     0.357800    0.359688    0.376144    0.387782    0.392777    0.403312
     0.409069    0.411858    0.414899    0.415066    0.425916    0.431930
     0.441126    0.456726    0.460189    0.470620    0.478784    0.479696
     0.480910    0.497268    0.511164    0.514341    0.525408    0.528828
     0.547527    0.588611    0.602171

 Minimum Search - Taking Simple RFO Step
 Searching for Lamda that Minimizes Along All modes
 Value Taken    Lamda =  -0.00388785
 Calculated Step too Large.  Step scaled by  0.665584
 Step Taken.  Stepsize is  0.300000

                             Maximum     Tolerance    Cnvgd?
         Gradient           0.003513      0.000300      NO
         Displacement       0.164932      0.001200      NO
         Energy change     -0.005795      0.000001      NO


[...]
  Sum of atomic charges =    -0.000502

Performing Hirshfeld population analysis.
Hirshfeld: reading atomic densities from disk.
Hirshfeld: performing integration.
Hirshfeld: integration completed in 162.31 sec.

          Hirshfeld Atomic Charges         

     Atom                 Charge (a.u.)    
  ---------------------------------------- 
      1 C                     0.169136
      2 C                    -0.226945
      3 N                    -0.352406
      4 C                    -0.064490
      5 C                     0.127239
      6 C                     0.016400
      7 C                    -0.133501
      8 C                     0.118962
      9 C                     0.225476
     10 N                    -0.373547
     11 N                    -0.464202
     12 C                     0.068283
     13 C                     0.301366
     14 S                     0.611415
     15 N                    -0.437707
     16 C                    -0.247059
     17 S                     0.250999
     18 C                    -0.006309
     19 C                    -0.218419
     20 S                     0.167634
     21 C                     0.086318
     22 C                     0.239832
     23 C                    -0.224256
     24 C                    -0.161718
     25 N                    -0.358682
     26 S                     0.166733
     27 C                     0.122561
     28 C                    -0.379265
     29 H                     0.064579
     30 H                     0.127794
     31 H                     0.104213
     32 H                     0.067964
     33 H                     0.075425
     34 H                     0.143113
     35 H                     0.126650
     36 H                     0.091462
     37 H                     0.174451
  ---------------------------------------- 
  Sum of atomic charges =    -0.000502

Performing Hirshfeld population analysis.
Hirshfeld: reading atomic densities from disk.
Hirshfeld: performing integration.
Hirshfeld: integration completed in 161.84 sec.

          Hirshfeld Atomic Charges         

     Atom                 Charge (a.u.)    
  ---------------------------------------- 
      1 C                     0.169871
      2 C                    -0.227917
      3 N                    -0.352766
      4 C                    -0.063969
      5 C                     0.127415
      6 C                     0.016709
      7 C                    -0.134947
      8 C                     0.120027
      9 C                     0.226473
     10 N                    -0.374280
     11 N                    -0.464520
     12 C                     0.067579
     13 C                     0.302536
     14 S                     0.611498
     15 N                    -0.437589
     16 C                    -0.248474
     17 S                     0.251898
     18 C                    -0.005576
     19 C                    -0.220023
     20 S                     0.167536
     21 C                     0.087063
     22 C                     0.240891
     23 C                    -0.224320
     24 C                    -0.162110
     25 N                    -0.359355
     26 S                     0.166889
     27 C                     0.123617
     28 C                    -0.380448
     29 H                     0.064440
     30 H                     0.128026
     31 H                     0.104137
     32 H                     0.067943
     33 H                     0.075241
     34 H                     0.143179
     35 H                     0.126778
     36 H                     0.091253
     37 H                     0.174793
  ---------------------------------------- 
  Sum of atomic charges =    -0.000502

Performing Hirshfeld population analysis.
Hirshfeld: reading atomic densities from disk.
Hirshfeld: performing integration.
Hirshfeld: integration completed in 160.42 sec.

          Hirshfeld Atomic Charges         

     Atom                 Charge (a.u.)    
  ---------------------------------------- 
      1 C                     0.170453
      2 C                    -0.228707
      3 N                    -0.353044
      4 C                    -0.063531
      5 C                     0.127542
      6 C                     0.016965
      7 C                    -0.136135
      8 C                     0.120902
      9 C                     0.227289
     10 N                    -0.374879
     11 N                    -0.464770
     12 C                     0.066989
     13 C                     0.303496
     14 S                     0.611552
     15 N                    -0.437476
     16 C                    -0.249638
     17 S                     0.252625
     18 C                    -0.004952
     19 C                    -0.221311
     20 S                     0.167437
     21 C                     0.087651
     22 C                     0.241745
     23 C                    -0.224336
     24 C                    -0.162443
     25 N                    -0.359894
     26 S                     0.167006
     27 C                     0.124454
     28 C                    -0.381377
     29 H                     0.064331
     30 H                     0.128214
     31 H                     0.104070
     32 H                     0.067929
     33 H                     0.075089
     34 H                     0.143222
     35 H                     0.126883
     36 H                     0.091088
     37 H                     0.175062
  ---------------------------------------- 
  Sum of atomic charges =    -0.000502

Performing Hirshfeld population analysis.
Hirshfeld: reading atomic densities from disk.
Hirshfeld: performing integration.
Hirshfeld: integration completed in 165.88 sec.

          Hirshfeld Atomic Charges         

     Atom                 Charge (a.u.)    
  ---------------------------------------- 
      1 C                     0.170916
      2 C                    -0.229348
      3 N                    -0.353260
      4 C                    -0.063166
      5 C                     0.127634
      6 C                     0.017175
      7 C                    -0.137110
      8 C                     0.121621
      9 C                     0.227958
     10 N                    -0.375369
     11 N                    -0.464970
     12 C                     0.066496
     13 C                     0.304284
     14 S                     0.611588
     15 N                    -0.437373
     16 C                    -0.250598
     17 S                     0.253213
     18 C                    -0.004423
     19 C                    -0.222345
     20 S                     0.167341
     21 C                     0.088117
     22 C                     0.242432
     23 C                    -0.224324
     24 C                    -0.162725
     25 N                    -0.360325
     26 S                     0.167094
     27 C                     0.125117
     28 C                    -0.382106
     29 H                     0.064246
     30 H                     0.128366
     31 H                     0.104011
     32 H                     0.067920
     33 H                     0.074963
     34 H                     0.143248
     35 H                     0.126970
     36 H                     0.090956
     37 H                     0.175272
  ---------------------------------------- 
  Sum of atomic charges =    -0.000502

Performing Hirshfeld population analysis.
Hirshfeld: reading atomic densities from disk.
Hirshfeld: performing integration.
Hirshfeld: integration completed in 163.22 sec.

          Hirshfeld Atomic Charges         

     Atom                 Charge (a.u.)    
  ---------------------------------------- 
      1 C                     0.171283
      2 C                    -0.229868
      3 N                    -0.353429
      4 C                    -0.062861
      5 C                     0.127701
      6 C                     0.017349
      7 C                    -0.137911
      8 C                     0.122212
      9 C                     0.228507
     10 N                    -0.375770
     11 N                    -0.465130
     12 C                     0.066086
     13 C                     0.304933
     14 S                     0.611612
     15 N                    -0.437281
     16 C                    -0.251390
     17 S                     0.253690
     18 C                    -0.003974
     19 C                    -0.223174
     20 S                     0.167251
     21 C                     0.088485
     22 C                     0.242986
     23 C                    -0.224293
     24 C                    -0.162965
     25 N                    -0.360669
     26 S                     0.167159
     27 C                     0.125641
     28 C                    -0.382679
     29 H                     0.064178
     30 H                     0.128489
     31 H                     0.103960
     32 H                     0.067916
     33 H                     0.074860
     34 H                     0.143264
     35 H                     0.127042
     36 H                     0.090851
     37 H                     0.175437
  ---------------------------------------- 
  Sum of atomic charges =    -0.000502

Performing Hirshfeld population analysis.
Hirshfeld: reading atomic densities from disk.
Hirshfeld: performing integration.
Hirshfeld: integration completed in 167.23 sec.

          Hirshfeld Atomic Charges         

     Atom                 Charge (a.u.)    
  ---------------------------------------- 
      1 C                     0.171577
      2 C                    -0.230291
      3 N                    -0.353560
      4 C                    -0.062609
      5 C                     0.127749
      6 C                     0.017493
      7 C                    -0.138568
      8 C                     0.122697
      9 C                     0.228957
     10 N                    -0.376100
     11 N                    -0.465259
     12 C                     0.065746
     13 C                     0.305467
     14 S                     0.611629
     15 N                    -0.437201
     16 C                    -0.252045
     17 S                     0.254077
     18 C                    -0.003594
     19 C                    -0.223840
     20 S                     0.167169
     21 C                     0.088777
     22 C                     0.243431
     23 C                    -0.224251
     24 C                    -0.163169
     25 N                    -0.360944
     26 S                     0.167208
     27 C                     0.126056
     28 C                    -0.383130
     29 H                     0.064125
     30 H                     0.128589
     31 H                     0.103917
     32 H                     0.067913
     33 H                     0.074775
     34 H                     0.143272
     35 H                     0.127102
     36 H                     0.090768
     37 H                     0.175566
  ---------------------------------------- 
  Sum of atomic charges =    -0.000502

Performing Hirshfeld population analysis.
Hirshfeld: reading atomic densities from disk.
Hirshfeld: performing integration.
Hirshfeld: integration completed in 164.22 sec.

          Hirshfeld Atomic Charges         

     Atom                 Charge (a.u.)    
  ---------------------------------------- 
      1 C                     0.171811
      2 C                    -0.230635
      3 N                    -0.353663
      4 C                    -0.062401
      5 C                     0.127783
      6 C                     0.017612
      7 C                    -0.139109
      8 C                     0.123095
      9 C                     0.229326
     10 N                    -0.376370
     11 N                    -0.465364
     12 C                     0.065464
     13 C                     0.305907
     14 S                     0.611640
     15 N                    -0.437132
     16 C                    -0.252586
     17 S                     0.254391
     18 C                    -0.003273
     19 C                    -0.224374
     20 S                     0.167095
     21 C                     0.089008
     22 C                     0.243789
     23 C                    -0.224205
     24 C                    -0.163342
     25 N                    -0.361164
     26 S                     0.167245
     27 C                     0.126385
     28 C                    -0.383484
     29 H                     0.064082
     30 H                     0.128670
     31 H                     0.103881
     32 H                     0.067913
     33 H                     0.074705
     34 H                     0.143275
     35 H                     0.127152
     36 H                     0.090703
     37 H                     0.175668
  ---------------------------------------- 
  Sum of atomic charges =    -0.000502

Performing Hirshfeld population analysis.
Hirshfeld: reading atomic densities from disk.
Hirshfeld: performing integration.
Hirshfeld: integration completed in 165.90 sec.

          Hirshfeld Atomic Charges         

     Atom                 Charge (a.u.)    
  ---------------------------------------- 
      1 C                     0.171998
      2 C                    -0.230914
      3 N                    -0.353743
      4 C                    -0.062229
      5 C                     0.127807
      6 C                     0.017710
      7 C                    -0.139552
      8 C                     0.123422
      9 C                     0.229630
     10 N                    -0.376592
     11 N                    -0.465449
     12 C                     0.065231
     13 C                     0.306270
     14 S                     0.611648
     15 N                    -0.437074
     16 C                    -0.253035
     17 S                     0.254646
     18 C                    -0.003001
     19 C                    -0.224802
     20 S                     0.167028
     21 C                     0.089191
     22 C                     0.244076
     23 C                    -0.224158
     24 C                    -0.163488
     25 N                    -0.361339
     26 S                     0.167272
     27 C                     0.126645
     28 C                    -0.383763
     29 H                     0.064049
     30 H                     0.128736
     31 H                     0.103851
     32 H                     0.067913
     33 H                     0.074647
     34 H                     0.143275
     35 H                     0.127194
     36 H                     0.090651
     37 H                     0.175748
  ---------------------------------------- 
  Sum of atomic charges =    -0.000502


         Hirshfeld-I Atomic Charges         

     Atom                 Charge (a.u.)    
  ---------------------------------------- 
      1 C                    0.171997510334732
      2 C                    -0.230913586732516
      3 N                    -0.353742901532955
      4 C                    -0.062229494363535
      5 C                    0.127807093616726
      6 C                    0.017710133714306
      7 C                    -0.139552030019724
      8 C                    0.123422317520554
      9 C                    0.229629906823909
     10 N                    -0.376591765440219
     11 N                    -0.465448938481927
     12 C                    0.065230536528226
     13 C                    0.306269660585273
     14 S                    0.611647864472170
     15 N                    -0.437074032711935
     16 C                    -0.253034533011901
     17 S                    0.254646300007568
     18 C                    -0.003000838445962
     19 C                    -0.224802045400708
     20 S                    0.167028355082085
     21 C                    0.089190528339989
     22 C                    0.244075968333734
     23 C                    -0.224158303056601
     24 C                    -0.163487762218045
     25 N                    -0.361338799892319
     26 S                    0.167271865253221
     27 C                    0.126644635451135
     28 C                    -0.383762951745136
     29 H                    0.064048781879890
     30 H                    0.128735702759312
     31 H                    0.103850778307617
     32 H                    0.067913423459230
     33 H                    0.074647280664956
     34 H                    0.143275035985387
     35 H                    0.127194154808035
     36 H                    0.090650729096270
     37 H                    0.175747715818425
  ---------------------------------------- 
  Sum of atomic charges =    -0.000501704210733

Hirshiter_convergence_thresh = 0.0005000000
Hirshiter scheme takes 24 iteration to converge

Hirshfeld-I completed in 4200.53 (cpu) 4013.03 (wall) 
 -----------------------------------------------------------------
                    Cartesian Multipole Moments
 -----------------------------------------------------------------
    Charge (ESU x 10^10)
                 0.0000
    Dipole Moment (Debye)
         X       1.9326      Y       0.0871      Z      -1.2626
       Tot       2.3101
    Quadrupole Moments (Debye-Ang)
        XX    -170.1417     XY     -16.5247     YY    -171.1153
        XZ       9.4970     YZ      -1.7355     ZZ    -188.0953
    Octopole Moments (Debye-Ang^2)
       XXX     239.3529    XXY      51.7982    XYY      33.6891
       YYY      20.1226    XXZ     -59.9468    XYZ      15.3325
       YYZ       9.7713    XZZ     -11.4145    YZZ       0.5768
       ZZZ      39.0735
    Hexadecapole Moments (Debye-Ang^3)
      XXXX  -17449.8737   XXXY   -1131.2817   XXYY   -3597.9078
      XYYY     119.1410   YYYY   -3549.0109   XXXZ     368.2450
      XXYZ     -66.6776   XYYZ     -25.9300   YYYZ      -4.3453
      XXZZ   -3393.9091   XYZZ      -8.9394   YYZZ    -729.4138
      XZZZ    -183.5157   YZZZ     -22.5604   ZZZZ    -336.5659
 -----------------------------------------------------------------
Archival summary:
1\1\chiqspirix\SP\ProcedureUnspecified\BasisUnspecified\45199\Andres\FriJun205:44:122017FriJun205:44:122017\0\\#,ProcedureUnspecified,BasisUnspecified,\\0,1\S\C,1,1.72186\C,2,1.37951,1,111.008\C,3,1.41806,2,111.88,1,-0.0498918,0\C,4,1.37597,3,114.662,2,0.066047,0\C,3,1.43718,2,135.87,1,179.874,0\H,6,1.07699,3,123.257,2,-0.188734,0\C,6,1.34495,3,111.156,2,-179.846,0\H,8,1.07848,6,126.378,3,179.566,0\C,5,1.44463,4,124.893,3,179.847,0\N,10,1.31047,5,116.741,4,-0.766648,0\C,11,1.35509,10,120.915,5,179.972,0\H,12,1.08289,11,114.168,10,-179.26,0\C,12,1.36801,11,126.216,10,0.306072,0\C,14,1.42546,12,114.811,11,-0.601996,0\N,15,1.33373,14,127.651,12,179.594,0\C,15,1.42813,14,119.537,12,0.663321,0\N,17,1.32971,15,113.619,14,179.222,0\C,2,1.44753,1,121.94,3,179.556,0\N,19,1.30235,2,123.244,1,-179.217,0\C,20,1.36233,19,111.164,2,179.686,0\H,21,1.07895,20,119.623,19,-179.809,0\C,21,1.35582,20,116.087,19,0.103657,0\H,23,1.07585,21,128.731,20,-179.842,0\C,14,1.47214,12,121.896,11,179.235,0\C,25,1.39031,14,121.241,12,-42.243,0\H,26,1.08186,25,119.826,14,-2.86382,0\C,26,1.38143,25,119.248,14,178.473,0\H,28,1.08047,26,121.324,25,179.048,0\C,28,1.38497,26,118.648,25,0.0540816,0\H,30,1.08342,28,120.542,26,179.414,0\N,30,1.32995,28,123.166,26,-0.15007,0\C,32,1.32582,30,117.697,28,0.216783,0\H,33,1.08311,32,116.29,30,179.991,0\S,18,1.60952,17,106.356,15,0.0465848,0\S,23,1.71452,21,109.657,20,0.0533987,0\S,4,1.73063,3,111.77,2,179.912,0\\\@

 Total job time:  5347.98s(wall), 9480.74s(cpu) 
 Fri Jun  2 05:44:12 2017

        *************************************************************
        *                                                           *
        *  Thank you very much for using Q-Chem.  Have a nice day.  *
        *                                                           *
        *************************************************************


0 sent ACK to 0 
now end server 0 ... 
cleanup process ... done
