
Running Job 1 of 2 quantum_inputs/C306.qcin
qchem quantum_inputs/C306.qcin_20449.0 /home/Andres/temp/qchem20449/ 1
/usr/local/qchem44/bin/mpi/mpirun_qchem -machinefile /usr/local/qchem44/bin/mpi/machines -np 1 /usr/local/qchem44/exe/qcprog.exe quantum_inputs/C306.qcin_20449.0 /home/Andres/temp/qchem20449/

Process 0 of 1 is on localhost.localdomain - thread support 0
initial socket setup ...start
initial socket setup ...done 
now start server 0 ... 
localhost.localdomain 127.0.0
                  Welcome to Q-Chem
     A Quantum Leap Into The Future Of Chemistry


 Q-Chem 4.4, Q-Chem, Inc., Pleasanton, CA (2016)

 Y. Shao,  Z. Gan,  E. Epifanovsky,  A. T. B. Gilbert,  M. Wormit,  
 J. Kussmann,  A. W. Lange,  A. Behn,  J. Deng,  X. Feng,  D. Ghosh,  
 M. Goldey,  P. R. Horn,  L. D. Jacobson,  I. Kaliman,  R. Z. Khaliullin,  
 T. Kus,  A. Landau,  J. Liu,  E. I. Proynov,  Y. M. Rhee,  R. M. Richard,  
 M. A. Rohrdanz,  R. P. Steele,  E. J. Sundstrom,  H. L. Woodcock III,  
 P. M. Zimmerman,  D. Zuev,  B. Albrecht,  E. Alguire,  B. Austin,  
 S. A. Baeppler,  G. J. O. Beran,  Y. A. Bernard,  E. Berquist,  
 K. Brandhorst,  K. B. Bravaya,  S. T. Brown,  D. Casanova,  C.-M. Chang,  
 Y. Chen,  S. H. Chien,  K. D. Closser,  M. P. Coons,  D. L. Crittenden,  
 S. Dasgupta,  M. Diedenhofen,  R. A. DiStasio Jr.,  H. Do,  A. D. Dutoi,  
 R. G. Edgar,  P.-T. Fang,  S. Fatehi,  Q. Feng,  L. Fusti-Molnar,  
 A. Ghysels,  A. Golubeva-Zadorozhnaya,  J. Gomes,  A. Gunina,  
 M. W. D. Hanson-Heine,  P. H. P. Harbach,  A. W. Hauser,  E. G. Hohenstein,  
 Z. C. Holden,  K. Hui,  T.-C. Jagau,  H. Ji,  B. Kaduk,  K. Khistyaev,  
 Jaehoon Kim,  Jihan Kim,  R. A. King,  P. Klunzinger,  D. Kosenkov,  
 T. Kowalczyk,  C. M. Krauter,  A. Kunitsa,  K. U. Lao,  A. Laurent,  
 K. V. Lawler,  D. Lefrancois,  S. Lehtola,  S. V. Levchenko,  C. Y. Lin,  
 Y.-S. Lin,  F. Liu,  E. Livshits,  R. C. Lochan,  A. Luenser,  P. Manohar,  
 S. F. Manzer,  S.-P. Mao,  Y. Mao,  N. Mardirossian,  A. V. Marenich,  
 L. A. Martinez-Martinez,  S. A. Maurer,  N. J. Mayhall,  J.-M. Mewes,  
 A. F. Morrison,  K. Nanda,  C. M. Oana,  R. Olivares-Amaya,  D. P. O'Neill,  
 J. A. Parkhill,  T. M. Perrine,  R. Peverati,  P. A. Pieniazek,  F. Plasser,  
 A. Prociuk,  D. R. Rehn,  E. Rosta,  N. J. Russ,  N. Sergueev,  
 S. M. Sharada,  S. Sharma,  D. W. Small,  A. Sodt,  T. Stauch,  T. Stein,  
 D. Stuck,  Y.-C. Su,  A. J. W. Thom,  T. Tsuchimochi,  L. Vogt,  O. Vydrov,  
 T. Wang,  M. A. Watson,  J. Wenzel,  A. White,  C. F. Williams,  
 V. Vanovschi,  S. Yeganeh,  S. R. Yost,  Z.-Q. You,  I. Y. Zhang,  X. Zhang,  
 Y. Zhao,  B. R. Brooks,  G. K. L. Chan,  D. M. Chipman,  C. J. Cramer,  
 W. A. Goddard III,  M. S. Gordon,  W. J. Hehre,  A. Klamt,  
 H. F. Schaefer III,  M. W. Schmidt,  C. D. Sherrill,  D. G. Truhlar,  
 A. Warshel,  X. Xu,  A. Aspuru-Guzik,  R. Baer,  A. T. Bell,  N. A. Besley,  
 J.-D. Chai,  A. Dreuw,  B. D. Dunietz,  T. R. Furlani,  S. R. Gwaltney,  
 C.-P. Hsu,  Y. Jung,  J. Kong,  D. S. Lambrecht,  W. Liang,  C. Ochsenfeld,  
 V. A. Rassolov,  L. V. Slipchenko,  J. E. Subotnik,  T. Van Voorhis,  
 J. M. Herbert,  A. I. Krylov,  P. M. W. Gill,  M. Head-Gordon

 Contributors to earlier versions of Q-Chem not listed above: 
 R. D. Adamson,  J. Baker,  E. F. C. Byrd,  A. K. Chakraborty,  C.-L. Cheng,  
 H. Dachsel,  R. J. Doerksen,  G. Hawkins,  A. Heyden,  S. Hirata,  
 G. Kedziora,  F. J. Keil,  C. Kelley,  P. P. Korambath,  W. Kurlancheek,  
 A. M. Lee,  M. S. Lee,  D. Liotard,  I. Lotan,  P. E. Maslen,  N. Nair,  
 D. Neuhauser,  R. Olson,  B. Peters,  J. Ritchie,  N. E. Schultz,  
 N. Shenvi,  A. C. Simmonett,  K. S. Thanthiriwatte,  Q. Wu,  W. Zhang

 Please cite Q-Chem as follows:
 Y. Shao et al., Mol. Phys. 113, 184-215 (2015)
 DOI: 10.1080/00268976.2014.952696

 Q-Chem 4.4.0 for Intel X86 Linux

 Parts of Q-Chem use Armadillo 5.200.1 (Boston Tea Smuggler).
 http://arma.sourceforge.net/

 Q-Chem begins on Sat Jun  3 13:17:42 2017  

Host: 
0

     Scratch files written to /home/Andres/temp/qchem20449//
 Apr2716 1281_ 20995  20993 0   
 Parallel job on  1  processors
Processing $rem in /usr/local/qchem44/config/preferences.
 MEM_TOTAL  16000 

Checking the input file for inconsistencies... 	...done.

--------------------------------------------------------------
User input:
--------------------------------------------------------------
$comment
OPTIMIZATION
$end

$rem
JOBTYPE OPT
EXCHANGE omegaB97X-D
BASIS cc-pVTZ
$end

$molecule
0 1
C         -7.99911        1.65115       -0.34894
C         -7.06840        2.14725       -1.24793
C         -7.61373        0.69394        0.57835
C         -5.75719        1.70469       -1.20536
C         -6.30548        0.24289        0.61605
C         -5.35685        0.75808       -0.26482
C         -3.93643        0.36902       -0.17781
C         -2.94655        1.31315       -0.15856
C         -3.48578       -0.97753       -0.09931
N         -1.61649        1.06431       -0.07861
N         -4.24159       -2.07815       -0.09763
C         -2.08333       -1.25669       -0.02098
C         -1.16401       -0.15831       -0.01312
S         -3.21980       -3.31921        0.00008
N         -1.80725       -2.56004        0.04141
C          0.28758       -0.30997        0.08227
N          0.94739       -1.42604        0.06967
S          1.27358        1.11614        0.22390
C          2.28079       -1.20450        0.18264
C          2.67011        0.10394        0.28418
C          4.01871        0.61901        0.37211
S          4.40292        2.08265        1.21412
C          5.16901        0.09155       -0.14785
C          6.06886        1.98264        0.84570
S          5.53057       -1.30899       -1.12069
C          6.34113        0.86209        0.11164
C          7.22008       -0.84528       -1.16819
C          7.50970        0.28007       -0.49622
H         -9.01897        2.00944       -0.36984
H         -7.35884        2.88290       -1.98557
H         -8.33571        0.30310        1.28262
H         -5.03494        2.08282       -1.91717
H         -6.01504       -0.50168        1.34390
H         -3.21601        2.36130       -0.18702
H          2.96215       -2.04227        0.20569
H          6.75011        2.74843        1.17500
H          7.90107       -1.46608       -1.72673
H          8.50174        0.69973       -0.44094
$end

--------------------------------------------------------------
 ----------------------------------------------------------------
             Standard Nuclear Orientation (Angstroms)
    I     Atom           X                Y                Z
 ----------------------------------------------------------------
    1      C      -7.9630653683     1.6997408904    -0.3826930374
    2      C      -7.0366911650     2.0971186083    -1.3337141303
    3      C      -7.5775792720     0.8324259486     0.6291373505
    4      C      -5.7293915796     1.6470706844    -1.2604482936
    5      C      -6.2733687553     0.3734893835     0.6984021485
    6      C      -5.3287138921     0.7914272060    -0.2365880845
    7      C      -3.9112624119     0.3977725003    -0.1252387511
    8      C      -2.9123021060     1.3289823034    -0.2061154709
    9      C      -3.4726831247    -0.9395633359     0.0787848874
   10      N      -1.5839384263     1.0751486239    -0.1145111630
   11      N      -4.2388757247    -2.0269493638     0.1934866258
   12      C      -2.0722409426    -1.2244854508     0.1710507001
   13      C      -1.1424800294    -0.1401147697     0.0645869183
   14      S      -3.2280154669    -3.2633982800     0.4013028634
   15      N      -1.8079647633    -2.5185570622     0.3564439757
   16      C       0.3084806730    -0.2970056298     0.1610847632
   17      N       0.9574841468    -1.4159129972     0.2503093958
   18      S       1.3093675580     1.1257520423     0.1555314796
   19      C       2.2939920145    -1.1984349910     0.3293523506
   20      C       2.6967362035     0.1095664748     0.3006303884
   21      C       4.0509854685     0.6166182115     0.3262860796
   22      S       4.4574827053     2.1505330311     1.0196153927
   23      C       5.1909715136     0.0295133419    -0.1506858612
   24      C       6.1186380424     1.9980949818     0.6475710846
   25      S       5.5294687501    -1.4619923859    -0.9870385833
   26      C       6.3728993260     0.8092127144     0.0226570961
   27      C       7.2227561112    -1.0226721813    -1.0942902715
   28      C       7.5297577768     0.1591396399    -0.5367000594
   29      H      -8.9796282164     2.0649660091    -0.4288833207
   30      H      -7.3274624642     2.7612123322    -2.1362604923
   31      H      -8.2961841602     0.5188609865     1.3743160459
   32      H      -5.0107128482     1.9472557761    -2.0119072926
   33      H      -5.9827799729    -0.3004261890     1.4920654661
   34      H      -3.1720484130     2.3722590208    -0.3331691312
   35      H       2.9675467538    -2.0371417294     0.4270065634
   36      H       6.8103936388     2.7849180180     0.8952767184
   37      H       7.8922038934    -1.7015010374    -1.5964237224
   38      H       8.5262475232     0.5718027027    -0.5311199583
 ----------------------------------------------------------------
 Molecular Point Group                 C1    NOp =  1
 Largest Abelian Subgroup              C1    NOp =  1
 Nuclear Repulsion Energy =  2865.8421368544 hartrees
 There are      111 alpha and      111 beta electrons
 Requested basis set is cc-pVTZ
 There are 348 shells and 996 basis functions

 Total QAlloc Memory Limit  16000 MB
 Mega-Array Size        61 MB
 MEM_STATIC part        62 MB
 A cutoff of  1.0D-11 yielded  28542 shell pairs
 There are    225986 function pairs (    295273 Cartesian)
 
 -------------------------------------------------------
 OpenMP Integral Computing Module                       
 Release: version 1.0, May 2013, Q-Chem Inc. Pittsburgh 
 -------------------------------------------------------
 Integral Job Info:
 Integral job number is                      11
 Integral operator is                         1
 short-range coefficients              22203600
 long-range coefficients              100000000
 Omega coefficients                         200
 if combine SR and LR in K                    1
 Integral screening is                        0
 Integral computing path is                   2
 max size of driver memory is            800000
 size of driver memory is                776718
 size of scratch memory is             26248924
 max col of scratch BK array              10000
 max len of scratch array in speh3          662
 max len of scratch index in speh4           32
 max int batch size is                      520
 min int batch size is                       52
 fixed nKL is                                52
 max L of basis functions is                  3
 order of int derivative is                   0
 number of shells is                        348
 number of basis is                        1146
 number of cartesian basis is              1146
 number of contracted shell pairs         28542
 number of primitive shell pairs          90620
 maxK2 (contraction) of shell pair          121
 max number of K2 of shell pair               1
 max number of CS2 of shell pair           3869
 max number of PS2 of shell pair          11494
 mem total for path MDJ                  790440
 -------------------------------------------------------
 Smallest overlap matrix eigenvalue = 3.12E-05

 Scale SEOQF with 1.000000e-02/1.000000e-01/1.000000e-01

 Standard Electronic Orientation quadrupole field applied
 Nucleus-field energy     =     0.0000000484 hartrees
 Guess from superposition of atomic densities
 Warning:  Energy on first SCF cycle will be non-variational
 Long-range K will be added via erf
 Coulomb attenuation parameter = 0.2 bohr**(-1)
 A restricted hybrid HF-DFT SCF calculation will be
 performed using Pulay DIIS extrapolation
 Exchange:     0.2220 Hartree-Fock + 1.0000 wB97X-D + LR-HF
 Correlation:  1.0000 wB97X-D
 Using SG-1 standard quadrature grid
 Dispersion:   Grimme D
 SCF converges when DIIS error is below 1.0E-08
 using 4 threads for integral computing 
 using 4 threads for integral computing 
 K construction time:  CPU 73.59 s  wall 18.55 s
 -------------------------------------------------------
 OpenMP BLAS3 based DFT computing Module                
 Release: version 1.0, May 2013, Q-Chem Inc. Pittsburgh 
 -------------------------------------------------------
 ---------------------------------------
  Cycle       Energy         DIIS Error
 ---------------------------------------
    1   -2589.8327294790      1.84E-02
 K construction time:  CPU 1178.93 s  wall 296.34 s
    2   -2579.6687538226      1.36E-03
 K construction time:  CPU 1124.65 s  wall 282.74 s
    3   -2579.7030317316      1.37E-03
 K construction time:  CPU 1101.20 s  wall 276.86 s
    4   -2579.9091883817      2.17E-04
 K construction time:  CPU 1006.11 s  wall 252.94 s
    5   -2579.9137613583      1.21E-04
 K construction time:  CPU 946.69 s  wall 237.93 s
    6   -2579.9155123401      3.68E-05
 K construction time:  CPU 881.78 s  wall 221.55 s
    7   -2579.9156825363      1.55E-05
 K construction time:  CPU 833.66 s  wall 209.49 s
    8   -2579.9157228989      5.93E-06
 K construction time:  CPU 793.25 s  wall 199.28 s
    9   -2579.9157326264      3.81E-06
 K construction time:  CPU 756.78 s  wall 190.11 s
   10   -2579.9157361255      1.11E-06
 K construction time:  CPU 681.86 s  wall 171.21 s
   11   -2579.9157365229      6.26E-07
 K construction time:  CPU 631.85 s  wall 158.60 s
   12   -2579.9157366280      1.90E-07
 K construction time:  CPU 562.72 s  wall 141.27 s
   13   -2579.9157366396      9.54E-08
 K construction time:  CPU 484.96 s  wall 121.74 s
   14   -2579.9157366434      3.38E-08
 K construction time:  CPU 424.48 s  wall 106.49 s
   15   -2579.9157366476      1.40E-08
 K construction time:  CPU 1178.79 s  wall 296.38 s
   16   -2579.9157366393      4.69E-09 Convergence criterion met
 ---------------------------------------
 SCF time:  CPU 16841.08 s  wall 4249.22 s
 SCF   energy in the final basis set = -2579.9157366393
 Total energy in the final basis set = -2579.9157366393
 
 --------------------------------------------------------------
 
                    Orbital Energies (a.u.)
 --------------------------------------------------------------
 
 Alpha MOs
 -- Occupied --
-89.156 -89.098 -89.094 -89.085 -14.486 -14.482 -14.454 -14.444
-10.365 -10.362 -10.358 -10.356 -10.343 -10.342 -10.335 -10.333
-10.330 -10.327 -10.324 -10.322 -10.313 -10.312 -10.306 -10.298
-10.297 -10.296 -10.296 -10.295  -8.161  -8.107  -8.103  -8.095
 -6.110  -6.105  -6.104  -6.056  -6.052  -6.052  -6.050  -6.048
 -6.046  -6.044  -6.040  -6.036  -1.146  -1.086  -1.064  -1.023
 -1.010  -0.975  -0.958  -0.925  -0.919  -0.898  -0.876  -0.860
 -0.856  -0.832  -0.828  -0.802  -0.775  -0.744  -0.734  -0.712
 -0.705  -0.693  -0.691  -0.660  -0.651  -0.637  -0.627  -0.614
 -0.606  -0.598  -0.572  -0.564  -0.556  -0.548  -0.542  -0.531
 -0.530  -0.524  -0.514  -0.513  -0.507  -0.504  -0.498  -0.486
 -0.477  -0.475  -0.469  -0.455  -0.449  -0.440  -0.436  -0.433
 -0.430  -0.423  -0.421  -0.399  -0.393  -0.374  -0.367  -0.362
 -0.358  -0.353  -0.339  -0.338  -0.324  -0.307  -0.272
 -- Virtual --
 -0.050   0.001   0.027   0.043   0.053   0.057   0.066   0.072
  0.083   0.089   0.107   0.113   0.118   0.124   0.131   0.138
  0.140   0.144   0.149   0.155   0.160   0.164   0.170   0.179
  0.189   0.192   0.193   0.200   0.218   0.220   0.234   0.236
  0.241   0.250   0.259   0.267   0.275   0.282   0.286   0.290
  0.297   0.302   0.304   0.308   0.312   0.316   0.322   0.325
  0.329   0.331   0.336   0.339   0.345   0.348   0.350   0.356
  0.359   0.362   0.370   0.372   0.377   0.384   0.385   0.387
  0.389   0.392   0.396   0.397   0.402   0.406   0.408   0.411
  0.413   0.418   0.421   0.428   0.429   0.434   0.435   0.441
  0.442   0.445   0.450   0.452   0.455   0.459   0.463   0.464
  0.467   0.469   0.470   0.475   0.478   0.481   0.486   0.487
  0.491   0.496   0.501   0.503   0.506   0.510   0.511   0.517
  0.521   0.526   0.527   0.530   0.533   0.544   0.546   0.553
  0.556   0.557   0.562   0.563   0.566   0.568   0.576   0.579
  0.580   0.594   0.595   0.602   0.608   0.616   0.619   0.625
  0.629   0.630   0.635   0.648   0.651   0.651   0.659   0.666
  0.668   0.672   0.678   0.687   0.691   0.697   0.706   0.715
  0.721   0.726   0.727   0.731   0.736   0.741   0.746   0.753
  0.754   0.759   0.765   0.768   0.770   0.773   0.776   0.782
  0.787   0.794   0.797   0.802   0.804   0.812   0.816   0.818
  0.824   0.834   0.837   0.840   0.848   0.851   0.853   0.859
  0.862   0.866   0.875   0.878   0.883   0.886   0.889   0.898
  0.899   0.911   0.911   0.915   0.922   0.923   0.928   0.933
  0.941   0.945   0.952   0.957   0.959   0.962   0.965   0.971
  0.978   0.981   0.983   0.989   0.996   1.007   1.010   1.013
  1.022   1.032   1.037   1.043   1.047   1.050   1.055   1.057
  1.064   1.075   1.078   1.082   1.089   1.091   1.095   1.102
  1.109   1.117   1.125   1.127   1.132   1.141   1.145   1.150
  1.161   1.162   1.169   1.176   1.183   1.191   1.201   1.207
  1.210   1.217   1.221   1.227   1.236   1.243   1.249   1.254
  1.256   1.261   1.269   1.277   1.278   1.289   1.292   1.301
  1.315   1.317   1.326   1.337   1.348   1.356   1.359   1.364
  1.365   1.368   1.380   1.381   1.390   1.396   1.403   1.410
  1.415   1.419   1.423   1.435   1.437   1.444   1.450   1.451
  1.460   1.462   1.467   1.473   1.481   1.484   1.486   1.490
  1.491   1.500   1.515   1.518   1.522   1.538   1.542   1.550
  1.562   1.566   1.572   1.578   1.582   1.590   1.604   1.607
  1.609   1.619   1.624   1.627   1.639   1.645   1.652   1.655
  1.657   1.663   1.668   1.672   1.675   1.688   1.689   1.695
  1.705   1.709   1.711   1.714   1.727   1.735   1.740   1.748
  1.753   1.760   1.768   1.774   1.776   1.785   1.797   1.802
  1.823   1.831   1.835   1.841   1.854   1.873   1.882   1.885
  1.889   1.901   1.905   1.910   1.928   1.933   1.937   1.939
  1.947   1.958   1.967   1.975   1.981   1.990   1.996   2.005
  2.014   2.021   2.025   2.032   2.036   2.041   2.044   2.065
  2.071   2.080   2.084   2.091   2.103   2.105   2.118   2.124
  2.132   2.138   2.148   2.154   2.161   2.168   2.174   2.181
  2.193   2.201   2.207   2.211   2.215   2.236   2.237   2.241
  2.251   2.256   2.263   2.269   2.276   2.285   2.290   2.299
  2.319   2.326   2.331   2.334   2.336   2.344   2.352   2.357
  2.367   2.377   2.389   2.392   2.398   2.412   2.417   2.425
  2.435   2.443   2.447   2.455   2.455   2.462   2.469   2.478
  2.486   2.488   2.492   2.499   2.503   2.505   2.507   2.523
  2.533   2.537   2.541   2.553   2.557   2.564   2.570   2.585
  2.589   2.594   2.599   2.609   2.613   2.620   2.631   2.641
  2.646   2.654   2.665   2.670   2.676   2.681   2.693   2.711
  2.716   2.727   2.729   2.739   2.752   2.756   2.763   2.769
  2.772   2.779   2.782   2.785   2.787   2.802   2.805   2.808
  2.815   2.823   2.827   2.833   2.835   2.841   2.846   2.851
  2.863   2.875   2.885   2.897   2.899   2.903   2.910   2.913
  2.924   2.932   2.941   2.949   2.957   2.963   2.968   2.975
  2.978   2.986   2.992   2.996   2.997   3.006   3.013   3.020
  3.023   3.025   3.031   3.037   3.043   3.049   3.054   3.062
  3.066   3.072   3.073   3.079   3.082   3.086   3.094   3.097
  3.103   3.106   3.108   3.116   3.119   3.120   3.126   3.134
  3.137   3.140   3.149   3.152   3.155   3.161   3.165   3.168
  3.174   3.178   3.181   3.188   3.189   3.195   3.198   3.206
  3.212   3.215   3.217   3.222   3.226   3.232   3.235   3.241
  3.252   3.254   3.258   3.265   3.271   3.277   3.282   3.284
  3.287   3.288   3.292   3.300   3.306   3.308   3.311   3.318
  3.320   3.326   3.333   3.335   3.343   3.348   3.355   3.359
  3.364   3.371   3.376   3.383   3.390   3.394   3.398   3.406
  3.413   3.419   3.429   3.433   3.439   3.448   3.449   3.458
  3.460   3.464   3.467   3.472   3.477   3.482   3.484   3.494
  3.496   3.504   3.509   3.516   3.532   3.532   3.536   3.547
  3.547   3.563   3.568   3.568   3.573   3.579   3.583   3.596
  3.604   3.607   3.614   3.623   3.637   3.640   3.664   3.672
  3.685   3.693   3.702   3.704   3.714   3.721   3.731   3.740
  3.745   3.754   3.766   3.768   3.777   3.781   3.783   3.795
  3.801   3.802   3.812   3.835   3.840   3.844   3.854   3.855
  3.858   3.861   3.865   3.867   3.878   3.881   3.886   3.888
  3.893   3.898   3.906   3.922   3.934   3.935   3.945   3.950
  3.958   3.965   3.966   3.972   3.976   3.984   3.987   3.994
  3.996   4.008   4.014   4.028   4.032   4.041   4.054   4.071
  4.076   4.079   4.083   4.089   4.105   4.125   4.133   4.136
  4.146   4.152   4.161   4.165   4.169   4.175   4.184   4.189
  4.197   4.208   4.215   4.225   4.238   4.239   4.252   4.258
  4.271   4.275   4.278   4.287   4.299   4.314   4.321   4.327
  4.334   4.341   4.348   4.351   4.363   4.378   4.383   4.388
  4.390   4.399   4.404   4.410   4.423   4.426   4.431   4.435
  4.443   4.451   4.455   4.473   4.485   4.503   4.509   4.524
  4.526   4.541   4.551   4.560   4.572   4.581   4.593   4.600
  4.606   4.621   4.626   4.635   4.645   4.661   4.671   4.682
  4.685   4.719   4.722   4.735   4.748   4.753   4.776   4.781
  4.789   4.814   4.819   4.831   4.831   4.842   4.846   4.854
  4.862   4.865   4.883   4.888   4.896   4.909   4.918   4.935
  4.944   4.954   4.957   4.967   4.988   4.997   4.999   5.009
  5.025   5.045   5.053   5.066   5.073   5.079   5.087   5.090
  5.096   5.109   5.116   5.117   5.124   5.128   5.144   5.167
  5.187   5.193   5.214   5.242   5.248   5.251   5.265   5.273
  5.276   5.301   5.324   5.338   5.350   5.368   5.380   5.393
  5.399   5.431   5.439   5.465   5.509   5.515   5.522   5.538
  5.567   5.589   5.595   5.628   5.635   5.662   5.674   5.692
  5.727   5.737   5.765   5.794   5.815   5.822   5.836   5.867
  5.881   5.965   5.999   6.022   6.031   6.041   6.048   6.109
  6.139   6.156   6.172   6.188   6.212   6.236   6.253   6.300
  6.365   6.491   6.515   6.855   6.977   8.042   8.569   9.412
 10.110  10.703  11.117  11.143  11.684  12.011  12.294  12.619
 12.737  12.861  12.916  12.966  13.168  13.396  13.456  13.794
 13.823  13.949  14.127  14.675  15.703
 --------------------------------------------------------------
 
          Ground-State Mulliken Net Atomic Charges

     Atom                 Charge (a.u.)
  ----------------------------------------
      1 C                    -0.120702
      2 C                    -0.108300
      3 C                    -0.108984
      4 C                    -0.155657
      5 C                    -0.121219
      6 C                     0.122511
      7 C                     0.012167
      8 C                    -0.113226
      9 C                     0.036208
     10 N                    -0.174209
     11 N                    -0.280747
     12 C                    -0.012416
     13 C                     0.110777
     14 S                     0.412782
     15 N                    -0.224052
     16 C                    -0.007990
     17 N                    -0.137867
     18 S                     0.121082
     19 C                    -0.145583
     20 C                    -0.018037
     21 C                     0.004906
     22 S                     0.134668
     23 C                    -0.049814
     24 C                    -0.220527
     25 S                     0.056617
     26 C                     0.043510
     27 C                    -0.146182
     28 C                    -0.168564
     29 H                     0.114512
     30 H                     0.115331
     31 H                     0.114709
     32 H                     0.129008
     33 H                     0.115145
     34 H                     0.138537
     35 H                     0.146443
     36 H                     0.128941
     37 H                     0.132295
     38 H                     0.123924
  ----------------------------------------
  Sum of atomic charges =     0.000000

 -----------------------------------------------------------------
                    Cartesian Multipole Moments
 -----------------------------------------------------------------
    Charge (ESU x 10^10)
                 0.0000
    Dipole Moment (Debye)
         X       0.7617      Y       1.0598      Z      -0.1139
       Tot       1.3101
    Quadrupole Moments (Debye-Ang)
        XX    -140.4976     XY      -0.1792     YY    -179.6373
        XZ      -3.1971     YZ      -0.9322     ZZ    -184.5004
    Octopole Moments (Debye-Ang^2)
       XXX     157.7818    XXY      64.2771    XYY       8.3896
       YYY     -20.5081    XXZ     -14.3427    XYZ      48.5768
       YYZ      -4.8369    XZZ     -21.4196    YZZ      -4.2802
       ZZZ       0.3632
    Hexadecapole Moments (Debye-Ang^3)
      XXXX  -21196.2783   XXXY    -243.8138   XXYY   -4315.3937
      XYYY     168.9921   YYYY   -2811.0593   XXXZ    -411.3591
      XXYZ       6.9385   XYYZ      60.1869   YYYZ      -4.9232
      XXZZ   -4238.1493   XYZZ     -28.0464   YYZZ    -575.6677
      XZZZ      -7.1745   YZZZ     -15.4400   ZZZZ    -670.5670
 -----------------------------------------------------------------
 Calculating analytic gradient of the SCF energy
 K construction time:  CPU 2436.38 s  wall 610.75 s
 Gradient of SCF Energy
            1           2           3           4           5           6
    1  -0.0002656   0.0002639  -0.0000088  -0.0000920  -0.0003009   0.0002789
    2   0.0001205  -0.0000243   0.0007156  -0.0006471  -0.0001642  -0.0001231
    3   0.0000073  -0.0002791  -0.0001615   0.0002282   0.0000531   0.0002880
            7           8           9          10          11          12
    1  -0.0003200   0.0002569   0.0001611   0.0000745   0.0000052  -0.0002763
    2  -0.0002721   0.0001382   0.0000854   0.0000434   0.0002316   0.0002098
    3   0.0009015  -0.0002090  -0.0002370   0.0001421  -0.0002324   0.0001330
           13          14          15          16          17          18
    1   0.0003473  -0.0000699   0.0000349  -0.0000773  -0.0001519   0.0002527
    2  -0.0001900  -0.0002222   0.0001164  -0.0003795   0.0000485   0.0003067
    3  -0.0002579   0.0001364  -0.0002144  -0.0000064  -0.0003154   0.0003186
           19          20          21          22          23          24
    1   0.0001089  -0.0003003   0.0007868  -0.0006324   0.0000397   0.0002647
    2  -0.0000199   0.0002855  -0.0001479   0.0003632   0.0001239  -0.0002016
    3   0.0005229   0.0000569  -0.0008577   0.0005436   0.0007048  -0.0001696
           25          26          27          28          29          30
    1  -0.0002518  -0.0002499   0.0009024  -0.0006729   0.0000372   0.0000561
    2  -0.0002233   0.0002962   0.0005184  -0.0005614   0.0000664  -0.0004087
    3   0.0002852  -0.0009186  -0.0002509   0.0012267  -0.0003211  -0.0003967
           31          32          33          34          35          36
    1   0.0001040  -0.0000874   0.0000945  -0.0002788   0.0001946   0.0001228
    2  -0.0001591   0.0000487   0.0003096  -0.0002797  -0.0000215   0.0002257
    3   0.0001825  -0.0003376   0.0003845  -0.0001317  -0.0002419  -0.0001804
           37          38
    1  -0.0003886   0.0000377
    2  -0.0002169   0.0000091
    3   0.0000242  -0.0004202
 Max gradient component =       1.227E-03
 RMS gradient           =       3.438E-04
 Gradient time:  CPU 2916.58 s  wall 731.73 s
 Geometry Optimization Parameters
   NAtoms,    NIC,     NZ,  NCons,   NDum,   NFix, NCnnct, MaxDiis
       38     289       0       0       0       0       0       0


** GEOMETRY OPTIMIZATION IN DELOCALIZED INTERNAL COORDINATES **
   Searching for a Minimum

   Optimization Cycle:   1

                       Coordinates (Angstroms)
     ATOM                X               Y               Z
      1  C        -7.9630653683    1.6997408904   -0.3826930374
      2  C        -7.0366911650    2.0971186083   -1.3337141303
      3  C        -7.5775792720    0.8324259486    0.6291373505
      4  C        -5.7293915796    1.6470706844   -1.2604482936
      5  C        -6.2733687553    0.3734893835    0.6984021485
      6  C        -5.3287138921    0.7914272060   -0.2365880845
      7  C        -3.9112624119    0.3977725003   -0.1252387511
      8  C        -2.9123021060    1.3289823034   -0.2061154709
      9  C        -3.4726831247   -0.9395633359    0.0787848874
     10  N        -1.5839384263    1.0751486239   -0.1145111630
     11  N        -4.2388757247   -2.0269493638    0.1934866258
     12  C        -2.0722409426   -1.2244854508    0.1710507001
     13  C        -1.1424800294   -0.1401147697    0.0645869183
     14  S        -3.2280154669   -3.2633982800    0.4013028634
     15  N        -1.8079647633   -2.5185570622    0.3564439757
     16  C         0.3084806730   -0.2970056298    0.1610847632
     17  N         0.9574841468   -1.4159129972    0.2503093958
     18  S         1.3093675580    1.1257520423    0.1555314796
     19  C         2.2939920145   -1.1984349910    0.3293523506
     20  C         2.6967362035    0.1095664748    0.3006303884
     21  C         4.0509854685    0.6166182115    0.3262860796
     22  S         4.4574827053    2.1505330311    1.0196153927
     23  C         5.1909715136    0.0295133419   -0.1506858612
     24  C         6.1186380424    1.9980949818    0.6475710846
     25  S         5.5294687501   -1.4619923859   -0.9870385833
     26  C         6.3728993260    0.8092127144    0.0226570961
     27  C         7.2227561112   -1.0226721813   -1.0942902715
     28  C         7.5297577768    0.1591396399   -0.5367000594
     29  H        -8.9796282164    2.0649660091   -0.4288833207
     30  H        -7.3274624642    2.7612123322   -2.1362604923
     31  H        -8.2961841602    0.5188609865    1.3743160459
     32  H        -5.0107128482    1.9472557761   -2.0119072926
     33  H        -5.9827799729   -0.3004261890    1.4920654661
     34  H        -3.1720484130    2.3722590208   -0.3331691312
     35  H         2.9675467538   -2.0371417294    0.4270065634
     36  H         6.8103936388    2.7849180180    0.8952767184
     37  H         7.8922038934   -1.7015010374   -1.5964237224
     38  H         8.5262475232    0.5718027027   -0.5311199583
   Point Group: c1    Number of degrees of freedom:   108


   Energy is  -2579.915736639


 Attempting to Generate Delocalized Internal Coordinates

108 Hessian modes will be used to form the next step
  Hessian Eigenvalues:
     0.012445    0.014125    0.015144    0.015963    0.016015    0.016284
     0.016900    0.018487    0.019028    0.019035    0.019071    0.019279
     0.019482    0.020026    0.020092    0.020188    0.020654    0.021247
     0.021675    0.022772    0.022776    0.023413    0.023438    0.023822
     0.023926    0.024157    0.024180    0.024267    0.024323    0.024372
     0.024394    0.024585    0.025179    0.025295    0.025446    0.159960
     0.159976    0.159976    0.159977    0.159980    0.159989    0.159989
     0.159994    0.160000    0.160000    0.219981    0.219994    0.225219
     0.233059    0.234627    0.234756    0.237016    0.247488    0.249671
     0.249717    0.249742    0.249983    0.249984    0.249989    0.249992
     0.249995    0.249997    0.249998    0.249999    0.249999    0.295935
     0.305036    0.308301    0.315917    0.323622    0.337569    0.351125
     0.356812    0.357219    0.357935    0.358133    0.358536    0.358769
     0.359808    0.361676    0.362924    0.364136    0.366401    0.369604
     0.381443    0.387353    0.389675    0.393927    0.414022    0.429726
     0.432097    0.470658    0.472888    0.473918    0.478952    0.480195
     0.483004    0.483184    0.485982    0.496270    0.509455    0.520844
     0.525703    0.542841    0.555525    0.578689    0.637695    0.652608

 Minimum Search - Taking Simple RFO Step
 Searching for Lamda that Minimizes Along All modes
 Value Taken    Lamda =  -0.00071879
 Step Taken.  Stepsize is  0.213316

                             Maximum     Tolerance    Cnvgd?
         Gradient           0.002339      0.000300      NO
         Displacement       0.139260      0.001200      NO
         Energy change     *********      0.000001      NO


 New Cartesian Coordinates Obtained by Inverse Iteration

 Displacement from previous Coordinates is:  0.961561
 ----------------------------------------------------------------
             Standard Nuclear Orientation (Angstroms)
    I     Atom           X                Y                Z
 ----------------------------------------------------------------
    1      C      -7.9755761707     1.6732485601    -0.3688837912
    2      C      -7.0437968484     2.1635579400    -1.2700847543
    3      C      -7.5906536797     0.7282166782     0.5703760568
    4      C      -5.7314247126     1.7232850603    -1.2221548591
    5      C      -6.2794466132     0.2889124063     0.6215428979
    6      C      -5.3306884768     0.7935822269    -0.2647461878
    7      C      -3.9103591629     0.4087114532    -0.1572011901
    8      C      -2.9140469718     1.3430696843    -0.2370569178
    9      C      -3.4697664424    -0.9236687703     0.0757239106
   10      N      -1.5854054676     1.0927905484    -0.1381015430
   11      N      -4.2344059045    -2.0090604272     0.2180913478
   12      C      -2.0700087813    -1.2016465669     0.1937656860
   13      C      -1.1426662718    -0.1178239276     0.0677497689
   14      S      -3.2224265529    -3.2359233363     0.4714284015
   15      N      -1.8039904998    -2.4888154788     0.4203251153
   16      C       0.3078500896    -0.2741773347     0.1721145244
   17      N       0.9515088675    -1.3915935863     0.3073583858
   18      S       1.3162390842     1.1408087948     0.1005869243
   19      C       2.2892127563    -1.1786962999     0.3728737840
   20      C       2.6990664509     0.1245048023     0.2881541372
   21      C       4.0555010859     0.6263048327     0.2984401354
   22      S       4.4671241675     2.1798497125     0.9422038535
   23      C       5.1945528078     0.0229771878    -0.1627276674
   24      C       6.1301729525     2.0048711650     0.5935074538
   25      S       5.5306136497    -1.4900259130    -0.9608222754
   26      C       6.3810010117     0.7992491865     0.0003673582
   27      C       7.2281272840    -1.0662563514    -1.0606544910
   28      C       7.5379747962     0.1302769879    -0.5366832719
   29      H      -8.9966747759     2.0276250884    -0.3949522369
   30      H      -7.3346693187     2.8945321526    -2.0121734656
   31      H      -8.3148230337     0.3433998776     1.2754279180
   32      H      -5.0068795323     2.0951968908    -1.9345388815
   33      H      -5.9888336208    -0.4480889115     1.3566967062
   34      H      -3.1737654061     2.3851530254    -0.3757379967
   35      H       2.9568648385    -2.0155437854     0.5148628449
   36      H       6.8249182343     2.7930641933     0.8269066212
   37      H       7.9001980454    -1.7627175686    -1.5346811680
   38      H       8.5374051176     0.5355758312    -0.5281924637
 ----------------------------------------------------------------
 Molecular Point Group                 C1    NOp =  1
 Largest Abelian Subgroup              C1    NOp =  1
 Nuclear Repulsion Energy =  2866.2983860155 hartrees
 There are      111 alpha and      111 beta electrons
 Applying Cartesian multipole field
    Component          Value
    ---------          -----
     (2,0,0)        1.00000E-12
     (0,2,0)        2.00000E-11
     (0,0,2)       -3.00000E-11
 Nucleus-field energy     =     0.0000000493 hartrees
 Requested basis set is cc-pVTZ
 There are 348 shells and 996 basis functions
 A cutoff of  1.0D-11 yielded  28542 shell pairs
 There are    225908 function pairs (    295155 Cartesian)
 Smallest overlap matrix eigenvalue = 3.10E-05
 Guess MOs from SCF MO coefficient file
 Reading MOs from coefficient file
 Reading MOs from coefficient file
 Long-range K will be added via erf
 Coulomb attenuation parameter = 0.2 bohr**(-1)
 A restricted hybrid HF-DFT SCF calculation will be
 performed using Pulay DIIS extrapolation
 Exchange:     0.2220 Hartree-Fock + 1.0000 wB97X-D + LR-HF
 Correlation:  1.0000 wB97X-D
 Using SG-1 standard quadrature grid
 Dispersion:   Grimme D
 SCF converges when DIIS error is below 1.0E-08
 Geometry optimization detected.  Setting ReadMinima to 0
 Setting SaveMinima to 0
 using 4 threads for integral computing 
 using 4 threads for integral computing 
 K construction time:  CPU 1179.96 s  wall 296.71 s
 -------------------------------------------------------
 OpenMP BLAS3 based DFT computing Module                
 Release: version 1.0, May 2013, Q-Chem Inc. Pittsburgh 
 -------------------------------------------------------
 ---------------------------------------
  Cycle       Energy         DIIS Error
 ---------------------------------------
    1   -2579.8930166539      6.47E-04
 K construction time:  CPU 1179.03 s  wall 296.50 s
    2   -2579.9141222318      7.46E-05
 K construction time:  CPU 937.69 s  wall 235.69 s
    3   -2579.9155294558      4.78E-05
 K construction time:  CPU 878.11 s  wall 221.16 s
    4   -2579.9158458107      1.86E-05
 K construction time:  CPU 834.22 s  wall 209.70 s
    5   -2579.9159044021      1.24E-05
 K construction time:  CPU 778.40 s  wall 195.61 s
    6   -2579.9159247764      3.79E-06
 K construction time:  CPU 699.40 s  wall 175.79 s
    7   -2579.9159266186      1.64E-06
 K construction time:  CPU 646.64 s  wall 162.45 s
    8   -2579.9159270078      5.32E-07
 K construction time:  CPU 608.07 s  wall 152.75 s
    9   -2579.9159270825      1.78E-07
 K construction time:  CPU 519.48 s  wall 130.58 s
   10   -2579.9159270900      8.70E-08
 K construction time:  CPU 482.58 s  wall 121.01 s
   11   -2579.9159270924      4.01E-08
 K construction time:  CPU 424.58 s  wall 106.70 s
   12   -2579.9159270927      1.51E-08
 K construction time:  CPU 355.88 s  wall 89.22 s
   13   -2579.9159270949      5.64E-09 Convergence criterion met
 ---------------------------------------
 SCF time:  CPU 12783.95 s  wall 3228.02 s
 SCF   energy in the final basis set = -2579.9159270949
 Total energy in the final basis set = -2579.9159270949
 
 --------------------------------------------------------------
 
                    Orbital Energies (a.u.)
 --------------------------------------------------------------
 
 Alpha MOs
 -- Occupied --
-89.156 -89.098 -89.094 -89.086 -14.486 -14.482 -14.454 -14.444
-10.365 -10.362 -10.358 -10.356 -10.343 -10.342 -10.335 -10.333
-10.330 -10.327 -10.325 -10.322 -10.313 -10.312 -10.305 -10.298
-10.296 -10.296 -10.295 -10.294  -8.161  -8.107  -8.103  -8.095
 -6.111  -6.105  -6.105  -6.056  -6.052  -6.052  -6.050  -6.049
 -6.046  -6.044  -6.040  -6.036  -1.146  -1.086  -1.064  -1.023
 -1.010  -0.975  -0.958  -0.925  -0.919  -0.899  -0.876  -0.860
 -0.855  -0.832  -0.828  -0.802  -0.775  -0.745  -0.734  -0.713
 -0.705  -0.693  -0.691  -0.660  -0.651  -0.637  -0.626  -0.614
 -0.606  -0.598  -0.572  -0.564  -0.556  -0.548  -0.541  -0.531
 -0.530  -0.525  -0.514  -0.513  -0.507  -0.504  -0.498  -0.487
 -0.478  -0.475  -0.469  -0.455  -0.450  -0.440  -0.436  -0.433
 -0.431  -0.423  -0.420  -0.399  -0.393  -0.375  -0.367  -0.362
 -0.359  -0.353  -0.339  -0.338  -0.324  -0.305  -0.272
 -- Virtual --
 -0.050   0.001   0.027   0.042   0.053   0.057   0.067   0.072
  0.083   0.089   0.107   0.113   0.119   0.125   0.131   0.137
  0.140   0.144   0.149   0.156   0.160   0.163   0.171   0.179
  0.190   0.192   0.194   0.201   0.218   0.220   0.234   0.239
  0.242   0.250   0.259   0.268   0.275   0.282   0.287   0.290
  0.297   0.302   0.304   0.309   0.313   0.315   0.322   0.325
  0.328   0.331   0.336   0.339   0.345   0.349   0.350   0.355
  0.360   0.363   0.370   0.371   0.377   0.385   0.385   0.387
  0.388   0.393   0.396   0.397   0.403   0.407   0.409   0.411
  0.414   0.418   0.422   0.429   0.429   0.432   0.435   0.442
  0.443   0.445   0.449   0.452   0.455   0.459   0.463   0.464
  0.468   0.469   0.471   0.475   0.478   0.481   0.486   0.488
  0.493   0.496   0.501   0.504   0.505   0.509   0.512   0.517
  0.522   0.526   0.527   0.530   0.532   0.544   0.547   0.553
  0.556   0.558   0.562   0.564   0.568   0.569   0.577   0.580
  0.581   0.594   0.596   0.602   0.607   0.617   0.619   0.625
  0.627   0.630   0.635   0.647   0.651   0.652   0.660   0.666
  0.668   0.673   0.678   0.687   0.692   0.698   0.706   0.716
  0.720   0.726   0.728   0.730   0.736   0.741   0.745   0.753
  0.754   0.761   0.766   0.768   0.771   0.773   0.778   0.783
  0.785   0.794   0.796   0.803   0.804   0.814   0.817   0.820
  0.825   0.833   0.837   0.841   0.848   0.850   0.854   0.858
  0.863   0.867   0.876   0.879   0.882   0.886   0.889   0.898
  0.899   0.909   0.913   0.915   0.923   0.924   0.928   0.933
  0.940   0.944   0.952   0.957   0.961   0.963   0.967   0.975
  0.978   0.982   0.984   0.989   0.996   1.005   1.011   1.018
  1.023   1.032   1.038   1.041   1.046   1.048   1.056   1.058
  1.063   1.075   1.079   1.081   1.088   1.090   1.096   1.102
  1.109   1.114   1.122   1.127   1.131   1.143   1.146   1.151
  1.159   1.163   1.164   1.177   1.184   1.187   1.200   1.210
  1.212   1.216   1.218   1.223   1.236   1.242   1.249   1.253
  1.255   1.259   1.268   1.277   1.278   1.287   1.292   1.301
  1.314   1.320   1.327   1.337   1.348   1.355   1.359   1.363
  1.366   1.370   1.379   1.381   1.390   1.395   1.405   1.410
  1.414   1.419   1.422   1.435   1.439   1.446   1.450   1.454
  1.461   1.463   1.469   1.475   1.482   1.486   1.487   1.489
  1.491   1.497   1.516   1.517   1.521   1.539   1.543   1.550
  1.561   1.567   1.571   1.577   1.580   1.589   1.605   1.608
  1.613   1.617   1.626   1.628   1.638   1.642   1.651   1.653
  1.657   1.665   1.667   1.673   1.677   1.688   1.690   1.695
  1.705   1.709   1.711   1.713   1.727   1.734   1.739   1.746
  1.755   1.763   1.767   1.774   1.776   1.785   1.796   1.801
  1.822   1.829   1.837   1.840   1.854   1.873   1.881   1.885
  1.889   1.901   1.904   1.910   1.928   1.932   1.939   1.940
  1.947   1.958   1.967   1.975   1.980   1.989   1.994   2.004
  2.015   2.021   2.025   2.031   2.035   2.041   2.043   2.065
  2.071   2.080   2.085   2.092   2.102   2.107   2.117   2.124
  2.133   2.138   2.147   2.156   2.162   2.169   2.175   2.181
  2.192   2.203   2.207   2.211   2.214   2.235   2.238   2.241
  2.250   2.256   2.262   2.269   2.276   2.285   2.289   2.300
  2.320   2.327   2.333   2.335   2.338   2.345   2.353   2.358
  2.367   2.375   2.389   2.392   2.398   2.410   2.420   2.424
  2.437   2.443   2.446   2.454   2.454   2.461   2.468   2.477
  2.485   2.488   2.492   2.498   2.502   2.504   2.508   2.524
  2.528   2.534   2.542   2.555   2.558   2.566   2.573   2.586
  2.590   2.595   2.599   2.608   2.610   2.619   2.634   2.641
  2.646   2.654   2.662   2.670   2.678   2.682   2.695   2.710
  2.715   2.726   2.727   2.740   2.752   2.757   2.763   2.770
  2.773   2.775   2.781   2.786   2.788   2.799   2.805   2.808
  2.814   2.824   2.829   2.834   2.837   2.841   2.845   2.851
  2.861   2.874   2.886   2.896   2.898   2.904   2.910   2.914
  2.925   2.934   2.940   2.949   2.957   2.965   2.967   2.974
  2.978   2.984   2.992   2.995   2.998   3.007   3.012   3.020
  3.022   3.025   3.031   3.036   3.041   3.049   3.054   3.064
  3.067   3.073   3.074   3.079   3.082   3.086   3.093   3.095
  3.104   3.107   3.110   3.116   3.118   3.119   3.127   3.133
  3.137   3.141   3.150   3.154   3.154   3.161   3.166   3.169
  3.175   3.178   3.182   3.189   3.191   3.195   3.198   3.208
  3.211   3.214   3.217   3.223   3.225   3.232   3.235   3.240
  3.252   3.256   3.260   3.267   3.270   3.276   3.280   3.285
  3.287   3.288   3.291   3.299   3.305   3.308   3.311   3.315
  3.320   3.327   3.331   3.335   3.344   3.348   3.357   3.360
  3.365   3.370   3.375   3.385   3.389   3.393   3.398   3.407
  3.412   3.417   3.428   3.433   3.438   3.447   3.450   3.458
  3.459   3.464   3.466   3.472   3.477   3.481   3.485   3.493
  3.503   3.504   3.509   3.517   3.529   3.533   3.537   3.546
  3.548   3.563   3.565   3.569   3.572   3.578   3.587   3.597
  3.605   3.608   3.615   3.624   3.634   3.640   3.661   3.669
  3.687   3.693   3.702   3.707   3.717   3.722   3.729   3.738
  3.745   3.750   3.764   3.768   3.779   3.780   3.784   3.796
  3.801   3.804   3.810   3.837   3.841   3.847   3.849   3.856
  3.859   3.862   3.864   3.869   3.878   3.882   3.885   3.886
  3.890   3.895   3.909   3.921   3.930   3.935   3.945   3.948
  3.956   3.964   3.968   3.971   3.974   3.980   3.986   3.994
  3.995   4.012   4.016   4.030   4.034   4.041   4.054   4.068
  4.077   4.080   4.084   4.090   4.105   4.120   4.131   4.134
  4.144   4.150   4.165   4.168   4.171   4.179   4.187   4.193
  4.196   4.211   4.216   4.223   4.233   4.240   4.251   4.257
  4.270   4.274   4.280   4.291   4.299   4.316   4.323   4.327
  4.337   4.346   4.347   4.353   4.364   4.379   4.381   4.386
  4.392   4.400   4.408   4.411   4.421   4.424   4.428   4.435
  4.444   4.453   4.455   4.465   4.484   4.502   4.508   4.523
  4.525   4.541   4.551   4.561   4.567   4.580   4.593   4.600
  4.606   4.622   4.625   4.634   4.645   4.663   4.673   4.681
  4.689   4.718   4.722   4.736   4.749   4.752   4.777   4.781
  4.791   4.812   4.818   4.829   4.831   4.843   4.845   4.852
  4.863   4.867   4.884   4.890   4.900   4.908   4.922   4.935
  4.949   4.954   4.955   4.967   4.990   4.999   5.003   5.013
  5.025   5.043   5.052   5.066   5.073   5.081   5.087   5.093
  5.096   5.110   5.114   5.121   5.126   5.131   5.142   5.169
  5.187   5.193   5.214   5.242   5.247   5.252   5.267   5.272
  5.278   5.302   5.325   5.338   5.348   5.369   5.380   5.395
  5.403   5.431   5.440   5.468   5.508   5.516   5.524   5.540
  5.566   5.589   5.596   5.627   5.635   5.663   5.675   5.693
  5.729   5.740   5.768   5.794   5.816   5.822   5.837   5.869
  5.882   5.965   5.998   6.020   6.028   6.046   6.048   6.112
  6.141   6.155   6.173   6.191   6.214   6.236   6.251   6.305
  6.368   6.488   6.517   6.854   6.988   8.046   8.571   9.438
 10.117  10.720  11.117  11.143  11.676  12.019  12.293  12.621
 12.735  12.868  12.930  12.964  13.170  13.396  13.457  13.795
 13.891  13.947  14.116  14.678  15.704
 --------------------------------------------------------------
 
          Ground-State Mulliken Net Atomic Charges

     Atom                 Charge (a.u.)
  ----------------------------------------
      1 C                    -0.119663
      2 C                    -0.108358
      3 C                    -0.114135
      4 C                    -0.156206
      5 C                    -0.121602
      6 C                     0.126911
      7 C                     0.018165
      8 C                    -0.113939
      9 C                     0.040473
     10 N                    -0.175309
     11 N                    -0.287781
     12 C                    -0.011240
     13 C                     0.110843
     14 S                     0.412625
     15 N                    -0.223152
     16 C                    -0.008841
     17 N                    -0.137709
     18 S                     0.121697
     19 C                    -0.145069
     20 C                    -0.017642
     21 C                     0.003420
     22 S                     0.135159
     23 C                    -0.051653
     24 C                    -0.220151
     25 S                     0.057661
     26 C                     0.043829
     27 C                    -0.146679
     28 C                    -0.168836
     29 H                     0.114131
     30 H                     0.113862
     31 H                     0.116823
     32 H                     0.128542
     33 H                     0.114010
     34 H                     0.137731
     35 H                     0.146042
     36 H                     0.128942
     37 H                     0.133119
     38 H                     0.123983
  ----------------------------------------
  Sum of atomic charges =     0.000000

 -----------------------------------------------------------------
                    Cartesian Multipole Moments
 -----------------------------------------------------------------
    Charge (ESU x 10^10)
                 0.0000
    Dipole Moment (Debye)
         X       0.7816      Y       1.0110      Z      -0.1155
       Tot       1.2831
    Quadrupole Moments (Debye-Ang)
        XX    -140.4232     XY      -0.0940     YY    -178.9045
        XZ      -3.2127     YZ      -1.2704     ZZ    -185.3932
    Octopole Moments (Debye-Ang^2)
       XXX     157.5833    XXY      58.4513    XYY       6.1527
       YYY     -21.1455    XXZ     -11.5457    XYZ      48.9891
       YYZ      -5.1743    XZZ     -18.6484    YZZ      -6.0606
       ZZZ       2.8827
    Hexadecapole Moments (Debye-Ang^3)
      XXXX  -21202.7818   XXXY    -220.0981   XXYY   -4296.3229
      XYYY     157.6392   YYYY   -2813.0064   XXXZ    -391.5088
      XXYZ       0.5343   XYYZ      65.1211   YYYZ      17.6216
      XXZZ   -4284.8631   XYZZ     -20.5750   YYZZ    -572.5100
      XZZZ       8.5824   YZZZ      14.5882   ZZZZ    -643.7198
 -----------------------------------------------------------------
 Calculating analytic gradient of the SCF energy
 K construction time:  CPU 2401.54 s  wall 601.93 s
 Gradient of SCF Energy
            1           2           3           4           5           6
    1   0.0003386  -0.0005912  -0.0001293   0.0004730   0.0008199  -0.0011339
    2  -0.0002393   0.0000649  -0.0007094  -0.0005577   0.0010100   0.0003945
    3  -0.0001337   0.0002872  -0.0000574  -0.0009818  -0.0002494  -0.0000184
            7           8           9          10          11          12
    1   0.0009557  -0.0004524  -0.0000245   0.0000691  -0.0006305  -0.0001176
    2  -0.0007256   0.0004358  -0.0000778  -0.0000102   0.0007576   0.0002078
    3   0.0004081   0.0008380  -0.0014982  -0.0000855   0.0006415   0.0005956
           13          14          15          16          17          18
    1   0.0000584  -0.0001345   0.0003068   0.0001882  -0.0003108   0.0000995
    2  -0.0003028   0.0000388   0.0001274  -0.0002663   0.0001526   0.0000824
    3  -0.0004825  -0.0000182  -0.0000037   0.0004478  -0.0001571   0.0001133
           19          20          21          22          23          24
    1   0.0000309  -0.0000103   0.0001693  -0.0004829  -0.0000149   0.0004790
    2  -0.0000765   0.0001419  -0.0004351   0.0004579   0.0001738  -0.0002679
    3  -0.0003153   0.0004731   0.0002911  -0.0006554  -0.0000271   0.0004013
           25          26          27          28          29          30
    1  -0.0003086  -0.0000545   0.0008768  -0.0004638  -0.0000229  -0.0000472
    2  -0.0000669   0.0002424   0.0000541   0.0000733  -0.0001795   0.0001753
    3  -0.0001951  -0.0002007   0.0003938  -0.0000128   0.0001869   0.0002100
           31          32          33          34          35          36
    1  -0.0000776   0.0003487   0.0003065  -0.0002936  -0.0000863   0.0000546
    2   0.0000995   0.0000075  -0.0006691  -0.0000189   0.0000325   0.0000539
    3  -0.0001825   0.0004616  -0.0001090  -0.0003345   0.0002199  -0.0001489
           37          38
    1  -0.0002384   0.0000508
    2  -0.0000963  -0.0000843
    3   0.0000174  -0.0001192
 Max gradient component =       1.498E-03
 RMS gradient           =       4.018E-04
 Gradient time:  CPU 2878.06 s  wall 722.11 s
 Geometry Optimization Parameters
   NAtoms,    NIC,     NZ,  NCons,   NDum,   NFix, NCnnct, MaxDiis
       38     289       0       0       0       0       0       0

 Cartesian Hessian Update
 Hessian Updated using BFGS Update


** GEOMETRY OPTIMIZATION IN DELOCALIZED INTERNAL COORDINATES **
   Searching for a Minimum

   Optimization Cycle:   2

                       Coordinates (Angstroms)
     ATOM                X               Y               Z
      1  C        -7.9755761707    1.6732485601   -0.3688837912
      2  C        -7.0437968484    2.1635579400   -1.2700847543
      3  C        -7.5906536797    0.7282166782    0.5703760568
      4  C        -5.7314247126    1.7232850603   -1.2221548591
      5  C        -6.2794466132    0.2889124063    0.6215428979
      6  C        -5.3306884768    0.7935822269   -0.2647461878
      7  C        -3.9103591629    0.4087114532   -0.1572011901
      8  C        -2.9140469718    1.3430696843   -0.2370569178
      9  C        -3.4697664424   -0.9236687703    0.0757239106
     10  N        -1.5854054676    1.0927905484   -0.1381015430
     11  N        -4.2344059045   -2.0090604272    0.2180913478
     12  C        -2.0700087813   -1.2016465669    0.1937656860
     13  C        -1.1426662718   -0.1178239276    0.0677497689
     14  S        -3.2224265529   -3.2359233363    0.4714284015
     15  N        -1.8039904998   -2.4888154788    0.4203251153
     16  C         0.3078500896   -0.2741773347    0.1721145244
     17  N         0.9515088675   -1.3915935863    0.3073583858
     18  S         1.3162390842    1.1408087948    0.1005869243
     19  C         2.2892127563   -1.1786962999    0.3728737840
     20  C         2.6990664509    0.1245048023    0.2881541372
     21  C         4.0555010859    0.6263048327    0.2984401354
     22  S         4.4671241675    2.1798497125    0.9422038535
     23  C         5.1945528078    0.0229771878   -0.1627276674
     24  C         6.1301729525    2.0048711650    0.5935074538
     25  S         5.5306136497   -1.4900259130   -0.9608222754
     26  C         6.3810010117    0.7992491865    0.0003673582
     27  C         7.2281272840   -1.0662563514   -1.0606544910
     28  C         7.5379747962    0.1302769879   -0.5366832719
     29  H        -8.9966747759    2.0276250884   -0.3949522369
     30  H        -7.3346693187    2.8945321526   -2.0121734656
     31  H        -8.3148230337    0.3433998776    1.2754279180
     32  H        -5.0068795323    2.0951968908   -1.9345388815
     33  H        -5.9888336208   -0.4480889115    1.3566967062
     34  H        -3.1737654061    2.3851530254   -0.3757379967
     35  H         2.9568648385   -2.0155437854    0.5148628449
     36  H         6.8249182343    2.7930641933    0.8269066212
     37  H         7.9001980454   -1.7627175686   -1.5346811680
     38  H         8.5374051176    0.5355758312   -0.5281924637
   Point Group: c1    Number of degrees of freedom:   108


   Energy is  -2579.915927095

 Hessian Updated using BFGS Update

108 Hessian modes will be used to form the next step
  Hessian Eigenvalues:
     0.011413    0.014575    0.015117    0.015969    0.016012    0.016657
     0.017644    0.018422    0.018495    0.019067    0.019226    0.019294
     0.019802    0.020024    0.020187    0.020579    0.021100    0.021512
     0.022441    0.022755    0.022793    0.023325    0.023437    0.023924
     0.024021    0.024176    0.024253    0.024288    0.024330    0.024338
     0.024558    0.025114    0.025256    0.025295    0.032281    0.158808
     0.159965    0.159977    0.159978    0.159983    0.159988    0.159989
     0.159997    0.160000    0.161070    0.219992    0.220523    0.225072
     0.233301    0.234755    0.235072    0.236913    0.246502    0.248424
     0.249717    0.249769    0.249881    0.249984    0.249986    0.249992
     0.249993    0.249997    0.249998    0.249999    0.291765    0.296097
     0.305094    0.308190    0.315850    0.323955    0.336815    0.351225
     0.356829    0.357222    0.357947    0.358133    0.358538    0.358930
     0.359817    0.361675    0.362910    0.364106    0.366401    0.372231
     0.381402    0.387354    0.389652    0.393965    0.415810    0.429682
     0.436913    0.470682    0.472887    0.474709    0.478709    0.480303
     0.483040    0.483187    0.485991    0.496279    0.509289    0.521012
     0.526511    0.542780    0.555531    0.578701    0.638179    0.652743

 Minimum Search - Taking Simple RFO Step
 Searching for Lamda that Minimizes Along All modes
 Value Taken    Lamda =  -0.00033798
 Step Taken.  Stepsize is  0.089728

                             Maximum     Tolerance    Cnvgd?
         Gradient           0.004550      0.000300      NO
         Displacement       0.066238      0.001200      NO
         Energy change     -0.000190      0.000001      NO


 New Cartesian Coordinates Obtained by Inverse Iteration

 Displacement from previous Coordinates is:  0.668618
 ----------------------------------------------------------------
             Standard Nuclear Orientation (Angstroms)
    I     Atom           X                Y                Z
 ----------------------------------------------------------------
    1      C      -7.9641679166     1.7121899401    -0.3516214595
    2      C      -7.0405451841     2.1515973873    -1.2866315163
    3      C      -7.5784026532     0.7944474134     0.6141287784
    4      C      -5.7353460532     1.6911902600    -1.2439679870
    5      C      -6.2754265296     0.3296842584     0.6559814366
    6      C      -5.3328155260     0.7861593685    -0.2635187204
    7      C      -3.9147860067     0.3889145040    -0.1659178292
    8      C      -2.9136235011     1.3149847044    -0.2773478825
    9      C      -3.4773103515    -0.9417993700     0.0895724253
   10      N      -1.5857367755     1.0609910693    -0.1845276643
   11      N      -4.2431193900    -2.0234758463     0.2544965028
   12      C      -2.0766322389    -1.2251481534     0.1909184130
   13      C      -1.1460680293    -0.1473513295     0.0382019744
   14      S      -3.2332018447    -3.2499516084     0.5173461985
   15      N      -1.8130381813    -2.5092903295     0.4369759910
   16      C       0.3052206116    -0.3044854828     0.1299482867
   17      N       0.9519716242    -1.4206732882     0.2625247880
   18      S       1.3099014109     1.1127978396     0.0607943946
   19      C       2.2892627129    -1.2044059058     0.3278495657
   20      C       2.6948017071     0.1008744045     0.2554523035
   21      C       4.0477152368     0.6108230988     0.2924656473
   22      S       4.4412464592     2.1449659341     0.9912372224
   23      C       5.1971462764     0.0283885175    -0.1706360918
   24      C       6.1085183689     1.9939749104     0.6552660013
   25      S       5.5552442701    -1.4577247688    -1.0085592945
   26      C       6.3757845854     0.8081343056     0.0302861561
   27      C       7.2493016312    -1.0158275678    -1.0795307469
   28      C       7.5442972116     0.1655641036    -0.5140528636
   29      H      -8.9788954046     2.0848237382    -0.3727360008
   30      H      -7.3318644436     2.8592285912    -2.0508538838
   31      H      -8.2955018817     0.4499067567     1.3467747227
   32      H      -5.0192725720     2.0237916605    -1.9838436168
   33      H      -5.9853558983    -0.3826346716     1.4146310165
   34      H      -3.1678435243     2.3565823022    -0.4290053330
   35      H       2.9588222867    -2.0393120453     0.4722576007
   36      H       6.7941635043     2.7795247501     0.9217607117
   37      H       7.9334916201    -1.6911127362    -1.5668997495
   38      H       8.5400873845     0.5783793138    -0.4801088269
 ----------------------------------------------------------------
 Molecular Point Group                 C1    NOp =  1
 Largest Abelian Subgroup              C1    NOp =  1
 Nuclear Repulsion Energy =  2865.2922524889 hartrees
 There are      111 alpha and      111 beta electrons
 Applying Cartesian multipole field
    Component          Value
    ---------          -----
     (2,0,0)        1.00000E-12
     (0,2,0)        2.00000E-11
     (0,0,2)       -3.00000E-11
 Nucleus-field energy     =     0.0000000485 hartrees
 Requested basis set is cc-pVTZ
 There are 348 shells and 996 basis functions
 A cutoff of  1.0D-11 yielded  28535 shell pairs
 There are    225883 function pairs (    295126 Cartesian)
 Smallest overlap matrix eigenvalue = 3.10E-05
 Guess MOs from SCF MO coefficient file
 Reading MOs from coefficient file
 Reading MOs from coefficient file
 Long-range K will be added via erf
 Coulomb attenuation parameter = 0.2 bohr**(-1)
 A restricted hybrid HF-DFT SCF calculation will be
 performed using Pulay DIIS extrapolation
 Exchange:     0.2220 Hartree-Fock + 1.0000 wB97X-D + LR-HF
 Correlation:  1.0000 wB97X-D
 Using SG-1 standard quadrature grid
 Dispersion:   Grimme D
 SCF converges when DIIS error is below 1.0E-08
 Geometry optimization detected.  Setting ReadMinima to 0
 Setting SaveMinima to 0
 using 4 threads for integral computing 
 using 4 threads for integral computing 
 K construction time:  CPU 1158.63 s  wall 291.31 s
 -------------------------------------------------------
 OpenMP BLAS3 based DFT computing Module                
 Release: version 1.0, May 2013, Q-Chem Inc. Pittsburgh 
 -------------------------------------------------------
 ---------------------------------------
  Cycle       Energy         DIIS Error
 ---------------------------------------
    1   -2579.9114511613      4.08E-04
 K construction time:  CPU 1157.37 s  wall 290.91 s
    2   -2579.9154950820      3.97E-05
 K construction time:  CPU 882.48 s  wall 221.83 s
    3   -2579.9159749623      2.11E-05
 K construction time:  CPU 837.78 s  wall 210.59 s
    4   -2579.9160317097      1.45E-05
 K construction time:  CPU 797.20 s  wall 200.29 s
    5   -2579.9160614005      5.96E-06
 K construction time:  CPU 741.16 s  wall 186.23 s
    6   -2579.9160657289      2.41E-06
 K construction time:  CPU 674.52 s  wall 169.38 s
    7   -2579.9160664687      6.29E-07
 K construction time:  CPU 632.81 s  wall 159.00 s
    8   -2579.9160665418      3.11E-07
 K construction time:  CPU 560.81 s  wall 140.76 s
    9   -2579.9160665583      1.02E-07
 K construction time:  CPU 481.04 s  wall 120.68 s
   10   -2579.9160665609      4.20E-08
 K construction time:  CPU 438.62 s  wall 110.00 s
   11   -2579.9160665612      2.01E-08
 K construction time:  CPU 379.52 s  wall 95.16 s
   12   -2579.9160665619      7.40E-09 Convergence criterion met
 ---------------------------------------
 SCF time:  CPU 11746.45 s  wall 2964.00 s
 SCF   energy in the final basis set = -2579.9160665619
 Total energy in the final basis set = -2579.9160665619
 
 --------------------------------------------------------------
 
                    Orbital Energies (a.u.)
 --------------------------------------------------------------
 
 Alpha MOs
 -- Occupied --
-89.156 -89.098 -89.094 -89.085 -14.486 -14.482 -14.454 -14.444
-10.365 -10.362 -10.358 -10.356 -10.343 -10.342 -10.335 -10.333
-10.330 -10.327 -10.325 -10.323 -10.313 -10.312 -10.305 -10.298
-10.296 -10.296 -10.295 -10.295  -8.161  -8.107  -8.103  -8.095
 -6.111  -6.105  -6.105  -6.056  -6.052  -6.052  -6.050  -6.048
 -6.046  -6.044  -6.040  -6.036  -1.146  -1.086  -1.064  -1.023
 -1.010  -0.975  -0.958  -0.925  -0.919  -0.899  -0.876  -0.860
 -0.856  -0.832  -0.828  -0.802  -0.775  -0.745  -0.734  -0.713
 -0.705  -0.693  -0.691  -0.660  -0.651  -0.637  -0.626  -0.615
 -0.606  -0.598  -0.572  -0.564  -0.556  -0.548  -0.542  -0.531
 -0.529  -0.525  -0.514  -0.513  -0.507  -0.504  -0.498  -0.486
 -0.478  -0.475  -0.469  -0.455  -0.449  -0.439  -0.436  -0.433
 -0.431  -0.423  -0.421  -0.399  -0.392  -0.375  -0.368  -0.362
 -0.359  -0.353  -0.339  -0.338  -0.324  -0.306  -0.272
 -- Virtual --
 -0.050   0.002   0.027   0.042   0.053   0.057   0.067   0.073
  0.083   0.089   0.106   0.113   0.118   0.125   0.131   0.137
  0.140   0.144   0.149   0.156   0.160   0.163   0.171   0.179
  0.190   0.192   0.194   0.200   0.218   0.220   0.235   0.238
  0.242   0.250   0.259   0.268   0.275   0.282   0.287   0.290
  0.296   0.302   0.304   0.309   0.313   0.315   0.322   0.326
  0.328   0.331   0.336   0.338   0.345   0.349   0.350   0.355
  0.359   0.362   0.370   0.371   0.377   0.384   0.386   0.387
  0.388   0.392   0.395   0.397   0.403   0.407   0.409   0.411
  0.413   0.417   0.422   0.429   0.430   0.432   0.435   0.442
  0.443   0.445   0.449   0.452   0.455   0.458   0.463   0.464
  0.468   0.470   0.471   0.475   0.478   0.481   0.485   0.487
  0.493   0.496   0.501   0.503   0.505   0.509   0.511   0.517
  0.522   0.526   0.527   0.530   0.533   0.543   0.547   0.553
  0.556   0.557   0.562   0.563   0.567   0.569   0.576   0.580
  0.581   0.594   0.596   0.602   0.607   0.616   0.618   0.625
  0.627   0.630   0.635   0.647   0.650   0.651   0.660   0.665
  0.667   0.673   0.678   0.686   0.692   0.697   0.705   0.716
  0.720   0.727   0.728   0.730   0.736   0.741   0.744   0.752
  0.754   0.761   0.764   0.768   0.771   0.773   0.777   0.782
  0.786   0.795   0.796   0.803   0.804   0.814   0.817   0.819
  0.825   0.833   0.837   0.841   0.848   0.850   0.853   0.858
  0.862   0.866   0.875   0.879   0.882   0.886   0.889   0.899
  0.899   0.910   0.912   0.915   0.923   0.925   0.929   0.932
  0.940   0.945   0.952   0.957   0.961   0.963   0.966   0.973
  0.977   0.982   0.983   0.989   0.995   1.005   1.010   1.016
  1.023   1.032   1.038   1.040   1.047   1.048   1.056   1.057
  1.062   1.075   1.080   1.081   1.089   1.090   1.095   1.101
  1.110   1.115   1.123   1.126   1.131   1.143   1.145   1.151
  1.159   1.163   1.165   1.177   1.185   1.188   1.201   1.209
  1.211   1.216   1.217   1.225   1.236   1.242   1.249   1.254
  1.255   1.259   1.268   1.276   1.278   1.288   1.292   1.301
  1.313   1.319   1.326   1.336   1.348   1.355   1.360   1.363
  1.366   1.371   1.378   1.381   1.389   1.395   1.404   1.410
  1.413   1.419   1.422   1.435   1.439   1.446   1.450   1.453
  1.459   1.462   1.469   1.474   1.482   1.486   1.488   1.488
  1.490   1.498   1.516   1.517   1.522   1.539   1.543   1.550
  1.561   1.567   1.571   1.577   1.580   1.589   1.605   1.609
  1.611   1.616   1.625   1.627   1.638   1.643   1.651   1.653
  1.657   1.664   1.666   1.673   1.677   1.688   1.690   1.695
  1.705   1.708   1.711   1.713   1.726   1.735   1.739   1.747
  1.755   1.762   1.767   1.773   1.776   1.785   1.796   1.801
  1.821   1.828   1.836   1.841   1.854   1.872   1.882   1.885
  1.889   1.900   1.905   1.909   1.928   1.932   1.939   1.940
  1.947   1.958   1.967   1.975   1.980   1.990   1.994   2.003
  2.015   2.021   2.025   2.032   2.036   2.042   2.044   2.065
  2.071   2.080   2.086   2.092   2.102   2.106   2.118   2.125
  2.133   2.138   2.147   2.155   2.163   2.169   2.175   2.180
  2.192   2.203   2.206   2.211   2.214   2.236   2.238   2.241
  2.250   2.256   2.262   2.268   2.275   2.284   2.289   2.300
  2.320   2.327   2.332   2.335   2.337   2.345   2.353   2.358
  2.369   2.375   2.389   2.392   2.399   2.410   2.420   2.423
  2.436   2.444   2.447   2.452   2.455   2.461   2.468   2.477
  2.486   2.489   2.491   2.499   2.501   2.504   2.509   2.523
  2.529   2.533   2.542   2.553   2.557   2.564   2.573   2.585
  2.590   2.594   2.599   2.608   2.611   2.617   2.634   2.642
  2.646   2.654   2.663   2.669   2.678   2.682   2.695   2.708
  2.714   2.726   2.727   2.740   2.752   2.757   2.762   2.770
  2.773   2.776   2.781   2.785   2.787   2.799   2.804   2.808
  2.814   2.823   2.827   2.834   2.836   2.841   2.844   2.851
  2.860   2.873   2.886   2.896   2.898   2.904   2.911   2.914
  2.924   2.933   2.940   2.949   2.956   2.964   2.967   2.974
  2.978   2.984   2.992   2.994   2.998   3.007   3.011   3.020
  3.022   3.026   3.030   3.036   3.042   3.049   3.054   3.064
  3.067   3.073   3.074   3.079   3.083   3.087   3.093   3.095
  3.104   3.107   3.109   3.116   3.118   3.118   3.127   3.133
  3.137   3.140   3.149   3.153   3.154   3.162   3.165   3.169
  3.175   3.178   3.182   3.189   3.190   3.195   3.198   3.207
  3.211   3.215   3.218   3.222   3.226   3.231   3.235   3.240
  3.252   3.255   3.259   3.266   3.270   3.277   3.281   3.284
  3.287   3.288   3.290   3.299   3.304   3.307   3.310   3.316
  3.319   3.326   3.332   3.336   3.344   3.348   3.357   3.360
  3.364   3.370   3.376   3.385   3.389   3.393   3.398   3.407
  3.412   3.418   3.428   3.433   3.438   3.447   3.450   3.458
  3.459   3.464   3.465   3.472   3.477   3.482   3.485   3.493
  3.502   3.503   3.509   3.518   3.530   3.534   3.537   3.546
  3.547   3.563   3.565   3.568   3.571   3.578   3.587   3.598
  3.606   3.608   3.615   3.625   3.635   3.639   3.661   3.669
  3.685   3.692   3.701   3.705   3.718   3.720   3.728   3.738
  3.745   3.751   3.762   3.768   3.778   3.780   3.783   3.796
  3.801   3.805   3.810   3.837   3.840   3.847   3.849   3.856
  3.859   3.861   3.864   3.868   3.877   3.883   3.885   3.885
  3.890   3.895   3.907   3.921   3.931   3.934   3.945   3.948
  3.956   3.964   3.967   3.971   3.974   3.981   3.986   3.993
  3.995   4.009   4.016   4.030   4.032   4.041   4.054   4.066
  4.077   4.079   4.084   4.090   4.103   4.121   4.132   4.134
  4.144   4.150   4.165   4.167   4.171   4.178   4.185   4.192
  4.196   4.210   4.216   4.222   4.234   4.239   4.251   4.257
  4.269   4.274   4.278   4.290   4.298   4.316   4.322   4.326
  4.335   4.344   4.347   4.352   4.363   4.378   4.381   4.386
  4.391   4.400   4.406   4.411   4.422   4.425   4.428   4.435
  4.443   4.453   4.455   4.466   4.484   4.500   4.506   4.523
  4.524   4.540   4.551   4.562   4.569   4.580   4.592   4.601
  4.605   4.623   4.624   4.634   4.644   4.664   4.673   4.681
  4.688   4.717   4.722   4.735   4.748   4.752   4.776   4.781
  4.789   4.812   4.818   4.829   4.831   4.843   4.845   4.852
  4.862   4.867   4.883   4.889   4.900   4.907   4.921   4.934
  4.948   4.953   4.955   4.967   4.989   4.999   5.001   5.012
  5.024   5.043   5.051   5.066   5.073   5.079   5.087   5.092
  5.096   5.109   5.114   5.120   5.126   5.130   5.142   5.169
  5.187   5.194   5.213   5.242   5.247   5.251   5.266   5.272
  5.277   5.301   5.325   5.336   5.347   5.368   5.380   5.395
  5.401   5.430   5.439   5.467   5.508   5.515   5.524   5.539
  5.566   5.589   5.595   5.626   5.634   5.664   5.674   5.693
  5.729   5.740   5.766   5.793   5.815   5.822   5.836   5.867
  5.881   5.965   5.997   6.018   6.028   6.045   6.047   6.107
  6.139   6.154   6.171   6.190   6.213   6.235   6.250   6.304
  6.366   6.489   6.516   6.852   6.985   8.049   8.574   9.427
 10.106  10.711  11.109  11.144  11.671  12.010  12.279  12.617
 12.719  12.862  12.923  12.961  13.165  13.395  13.449  13.788
 13.880  13.945  14.103  14.675  15.699
 --------------------------------------------------------------
 
          Ground-State Mulliken Net Atomic Charges

     Atom                 Charge (a.u.)
  ----------------------------------------
      1 C                    -0.119408
      2 C                    -0.108240
      3 C                    -0.112313
      4 C                    -0.156247
      5 C                    -0.120139
      6 C                     0.125767
      7 C                     0.017359
      8 C                    -0.114751
      9 C                     0.038668
     10 N                    -0.174884
     11 N                    -0.285549
     12 C                    -0.011763
     13 C                     0.110328
     14 S                     0.413264
     15 N                    -0.223575
     16 C                    -0.008797
     17 N                    -0.137995
     18 S                     0.122537
     19 C                    -0.143297
     20 C                    -0.018843
     21 C                     0.002110
     22 S                     0.136159
     23 C                    -0.052275
     24 C                    -0.221247
     25 S                     0.058270
     26 C                     0.043918
     27 C                    -0.146470
     28 C                    -0.169033
     29 H                     0.113710
     30 H                     0.114089
     31 H                     0.115678
     32 H                     0.128274
     33 H                     0.113302
     34 H                     0.138639
     35 H                     0.146212
     36 H                     0.129469
     37 H                     0.132722
     38 H                     0.124351
  ----------------------------------------
  Sum of atomic charges =     0.000000

 -----------------------------------------------------------------
                    Cartesian Multipole Moments
 -----------------------------------------------------------------
    Charge (ESU x 10^10)
                 0.0000
    Dipole Moment (Debye)
         X       0.7589      Y       1.0621      Z      -0.0314
       Tot       1.3057
    Quadrupole Moments (Debye-Ang)
        XX    -140.5629     XY      -0.2399     YY    -179.3031
        XZ      -2.9762     YZ      -1.1139     ZZ    -184.8952
    Octopole Moments (Debye-Ang^2)
       XXX     160.1832    XXY      63.3927    XYY       5.8747
       YYY     -18.3286    XXZ      -8.4842    XYZ      49.5891
       YYZ      -3.5841    XZZ     -19.4920    YZZ      -4.4594
       ZZZ       3.7477
    Hexadecapole Moments (Debye-Ang^3)
      XXXX  -21225.0477   XXXY    -243.4704   XXYY   -4308.2057
      XYYY     164.0625   YYYY   -2806.0677   XXXZ    -371.6594
      XXYZ      14.2622   XYYZ      72.3883   YYYZ      18.9241
      XXZZ   -4265.5346   XYZZ     -20.9222   YYZZ    -573.3020
      XZZZ      22.5342   YZZZ      15.9391   ZZZZ    -670.2066
 -----------------------------------------------------------------
 Calculating analytic gradient of the SCF energy
 K construction time:  CPU 2341.82 s  wall 586.90 s
 Gradient of SCF Energy
            1           2           3           4           5           6
    1   0.0002689  -0.0002936  -0.0001942   0.0002772   0.0001637  -0.0006250
    2  -0.0002500   0.0000757   0.0000729  -0.0003251   0.0000279  -0.0000315
    3  -0.0002244   0.0000531   0.0001081  -0.0002473  -0.0000131  -0.0001976
            7           8           9          10          11          12
    1   0.0004800  -0.0000784   0.0000491   0.0000756  -0.0000718  -0.0000936
    2   0.0001311  -0.0000413   0.0000801   0.0000221  -0.0000037  -0.0000408
    3   0.0002981  -0.0002044  -0.0001263   0.0002127  -0.0000615  -0.0003741
           13          14          15          16          17          18
    1   0.0000880  -0.0000063   0.0000073  -0.0000369  -0.0000903   0.0000277
    2   0.0001191  -0.0002403  -0.0000548  -0.0000679   0.0001924  -0.0000444
    3   0.0003432   0.0001705   0.0001985  -0.0000246   0.0003245  -0.0003948
           19          20          21          22          23          24
    1   0.0001658   0.0001492  -0.0007206   0.0001388  -0.0000704   0.0002818
    2  -0.0002242   0.0001570   0.0000961   0.0000270  -0.0002847  -0.0000322
    3  -0.0013607   0.0005455   0.0008058  -0.0006004  -0.0003716   0.0000453
           25          26          27          28          29          30
    1   0.0000254   0.0000369  -0.0000438   0.0003366   0.0000064  -0.0000521
    2   0.0001383   0.0002112  -0.0000536   0.0001291   0.0000836  -0.0000826
    3   0.0001457   0.0002780   0.0001319  -0.0004647   0.0001173  -0.0000633
           31          32          33          34          35          36
    1   0.0000478   0.0000122   0.0000486  -0.0000663  -0.0001951  -0.0001320
    2  -0.0000092   0.0000318   0.0001532   0.0000128   0.0000222  -0.0000322
    3  -0.0000207   0.0000367   0.0000060   0.0000972   0.0004092   0.0000540
           37          38
    1   0.0000726   0.0000108
    2   0.0000027   0.0000323
    3   0.0001164   0.0002520
 Max gradient component =       1.361E-03
 RMS gradient           =       2.531E-04
 Gradient time:  CPU 2820.76 s  wall 707.66 s
 Geometry Optimization Parameters
   NAtoms,    NIC,     NZ,  NCons,   NDum,   NFix, NCnnct, MaxDiis
       38     289       0       0       0       0       0       0

 Cartesian Hessian Update
 Hessian Updated using BFGS Update


** GEOMETRY OPTIMIZATION IN DELOCALIZED INTERNAL COORDINATES **
   Searching for a Minimum

   Optimization Cycle:   3

                       Coordinates (Angstroms)
     ATOM                X               Y               Z
      1  C        -7.9641679166    1.7121899401   -0.3516214595
      2  C        -7.0405451841    2.1515973873   -1.2866315163
      3  C        -7.5784026532    0.7944474134    0.6141287784
      4  C        -5.7353460532    1.6911902600   -1.2439679870
      5  C        -6.2754265296    0.3296842584    0.6559814366
      6  C        -5.3328155260    0.7861593685   -0.2635187204
      7  C        -3.9147860067    0.3889145040   -0.1659178292
      8  C        -2.9136235011    1.3149847044   -0.2773478825
      9  C        -3.4773103515   -0.9417993700    0.0895724253
     10  N        -1.5857367755    1.0609910693   -0.1845276643
     11  N        -4.2431193900   -2.0234758463    0.2544965028
     12  C        -2.0766322389   -1.2251481534    0.1909184130
     13  C        -1.1460680293   -0.1473513295    0.0382019744
     14  S        -3.2332018447   -3.2499516084    0.5173461985
     15  N        -1.8130381813   -2.5092903295    0.4369759910
     16  C         0.3052206116   -0.3044854828    0.1299482867
     17  N         0.9519716242   -1.4206732882    0.2625247880
     18  S         1.3099014109    1.1127978396    0.0607943946
     19  C         2.2892627129   -1.2044059058    0.3278495657
     20  C         2.6948017071    0.1008744045    0.2554523035
     21  C         4.0477152368    0.6108230988    0.2924656473
     22  S         4.4412464592    2.1449659341    0.9912372224
     23  C         5.1971462764    0.0283885175   -0.1706360918
     24  C         6.1085183689    1.9939749104    0.6552660013
     25  S         5.5552442701   -1.4577247688   -1.0085592945
     26  C         6.3757845854    0.8081343056    0.0302861561
     27  C         7.2493016312   -1.0158275678   -1.0795307469
     28  C         7.5442972116    0.1655641036   -0.5140528636
     29  H        -8.9788954046    2.0848237382   -0.3727360008
     30  H        -7.3318644436    2.8592285912   -2.0508538838
     31  H        -8.2955018817    0.4499067567    1.3467747227
     32  H        -5.0192725720    2.0237916605   -1.9838436168
     33  H        -5.9853558983   -0.3826346716    1.4146310165
     34  H        -3.1678435243    2.3565823022   -0.4290053330
     35  H         2.9588222867   -2.0393120453    0.4722576007
     36  H         6.7941635043    2.7795247501    0.9217607117
     37  H         7.9334916201   -1.6911127362   -1.5668997495
     38  H         8.5400873845    0.5783793138   -0.4801088269
   Point Group: c1    Number of degrees of freedom:   108


   Energy is  -2579.916066562

 Hessian Updated using BFGS Update

108 Hessian modes will be used to form the next step
  Hessian Eigenvalues:
     0.010475    0.013723    0.014630    0.015215    0.016006    0.016398
     0.017927    0.018446    0.018828    0.019061    0.019198    0.019361
     0.019825    0.020046    0.020185    0.020577    0.021191    0.021635
     0.022391    0.022774    0.023163    0.023382    0.023467    0.023875
     0.024061    0.024157    0.024252    0.024287    0.024327    0.024351
     0.024564    0.025077    0.025292    0.025317    0.047781    0.158886
     0.159827    0.159969    0.159977    0.159983    0.159986    0.159989
     0.159995    0.160000    0.161477    0.219857    0.220075    0.225177
     0.233234    0.234409    0.234757    0.237022    0.246696    0.248854
     0.249454    0.249738    0.249797    0.249899    0.249984    0.249987
     0.249992    0.249993    0.249998    0.249998    0.271866    0.295783
     0.305092    0.308198    0.315949    0.323641    0.338094    0.352180
     0.356819    0.357217    0.357936    0.358133    0.358538    0.359099
[...]
      2 C                    -0.091403
      3 C                    -0.083341
      4 C                    -0.154281
      5 C                    -0.149796
      6 C                     0.114535
      7 C                    -0.110071
      8 C                     0.102659
      9 C                     0.215506
     10 N                    -0.364510
     11 N                    -0.467117
     12 C                     0.084810
     13 C                     0.204652
     14 S                     0.606967
     15 N                    -0.405907
     16 C                     0.114794
     17 N                    -0.314710
     18 S                     0.152873
     19 C                     0.045864
     20 C                    -0.121747
     21 C                    -0.080524
     22 S                     0.237394
     23 C                    -0.073912
     24 C                    -0.373541
     25 S                     0.140239
     26 C                     0.127101
     27 C                    -0.208872
     28 C                    -0.173895
     29 H                     0.097768
     30 H                     0.104093
     31 H                     0.100427
     32 H                     0.101215
     33 H                     0.106942
     34 H                     0.078785
     35 H                     0.088536
     36 H                     0.166007
     37 H                     0.142337
     38 H                     0.130528
  ---------------------------------------- 
  Sum of atomic charges =    -0.000990

Performing Hirshfeld population analysis.
Hirshfeld: reading atomic densities from disk.
Hirshfeld: performing integration.
Hirshfeld: integration completed in 155.33 sec.

          Hirshfeld Atomic Charges         

     Atom                 Charge (a.u.)    
  ---------------------------------------- 
      1 C                    -0.091755
      2 C                    -0.090893
      3 C                    -0.082811
      4 C                    -0.155050
      5 C                    -0.150583
      6 C                     0.115608
      7 C                    -0.111413
      8 C                     0.103471
      9 C                     0.216279
     10 N                    -0.364860
     11 N                    -0.467338
     12 C                     0.084494
     13 C                     0.204922
     14 S                     0.607017
     15 N                    -0.405852
     16 C                     0.114757
     17 N                    -0.314785
     18 S                     0.152980
     19 C                     0.046117
     20 C                    -0.122173
     21 C                    -0.079997
     22 S                     0.237637
     23 C                    -0.074667
     24 C                    -0.374567
     25 S                     0.140430
     26 C                     0.128084
     27 C                    -0.208768
     28 C                    -0.174395
     29 H                     0.097807
     30 H                     0.104022
     31 H                     0.100349
     32 H                     0.101382
     33 H                     0.107118
     34 H                     0.078658
     35 H                     0.088483
     36 H                     0.166304
     37 H                     0.142347
     38 H                     0.130649
  ---------------------------------------- 
  Sum of atomic charges =    -0.000990

Performing Hirshfeld population analysis.
Hirshfeld: reading atomic densities from disk.
Hirshfeld: performing integration.
Hirshfeld: integration completed in 156.17 sec.

          Hirshfeld Atomic Charges         

     Atom                 Charge (a.u.)    
  ---------------------------------------- 
      1 C                    -0.092093
      2 C                    -0.090436
      3 C                    -0.082338
      4 C                    -0.155709
      5 C                    -0.151254
      6 C                     0.116508
      7 C                    -0.112522
      8 C                     0.104143
      9 C                     0.216913
     10 N                    -0.365149
     11 N                    -0.467513
     12 C                     0.084226
     13 C                     0.205150
     14 S                     0.607050
     15 N                    -0.405799
     16 C                     0.114721
     17 N                    -0.314841
     18 S                     0.153074
     19 C                     0.046324
     20 C                    -0.122544
     21 C                    -0.079520
     22 S                     0.237812
     23 C                    -0.075313
     24 C                    -0.375372
     25 S                     0.140586
     26 C                     0.128881
     27 C                    -0.208654
     28 C                    -0.174816
     29 H                     0.097846
     30 H                     0.103955
     31 H                     0.100277
     32 H                     0.101524
     33 H                     0.107266
     34 H                     0.078553
     35 H                     0.088442
     36 H                     0.166537
     37 H                     0.142347
     38 H                     0.130749
  ---------------------------------------- 
  Sum of atomic charges =    -0.000990

Performing Hirshfeld population analysis.
Hirshfeld: reading atomic densities from disk.
Hirshfeld: performing integration.
Hirshfeld: integration completed in 155.13 sec.

          Hirshfeld Atomic Charges         

     Atom                 Charge (a.u.)    
  ---------------------------------------- 
      1 C                    -0.092404
      2 C                    -0.090028
      3 C                    -0.081918
      4 C                    -0.156272
      5 C                    -0.151827
      6 C                     0.117263
      7 C                    -0.113439
      8 C                     0.104698
      9 C                     0.217435
     10 N                    -0.365389
     11 N                    -0.467653
     12 C                     0.084000
     13 C                     0.205341
     14 S                     0.607073
     15 N                    -0.405751
     16 C                     0.114687
     17 N                    -0.314884
     18 S                     0.153157
     19 C                     0.046494
     20 C                    -0.122868
     21 C                    -0.079092
     22 S                     0.237937
     23 C                    -0.075866
     24 C                    -0.376006
     25 S                     0.140713
     26 C                     0.129527
     27 C                    -0.208540
     28 C                    -0.175172
     29 H                     0.097883
     30 H                     0.103895
     31 H                     0.100212
     32 H                     0.101644
     33 H                     0.107390
     34 H                     0.078466
     35 H                     0.088409
     36 H                     0.166720
     37 H                     0.142340
     38 H                     0.130833
  ---------------------------------------- 
  Sum of atomic charges =    -0.000990

Performing Hirshfeld population analysis.
Hirshfeld: reading atomic densities from disk.
Hirshfeld: performing integration.
Hirshfeld: integration completed in 153.64 sec.

          Hirshfeld Atomic Charges         

     Atom                 Charge (a.u.)    
  ---------------------------------------- 
      1 C                    -0.092689
      2 C                    -0.089666
      3 C                    -0.081546
      4 C                    -0.156756
      5 C                    -0.152316
      6 C                     0.117896
      7 C                    -0.114196
      8 C                     0.105158
      9 C                     0.217865
     10 N                    -0.365589
     11 N                    -0.467766
     12 C                     0.083810
     13 C                     0.205502
     14 S                     0.607089
     15 N                    -0.405707
     16 C                     0.114656
     17 N                    -0.314916
     18 S                     0.153229
     19 C                     0.046635
     20 C                    -0.123150
     21 C                    -0.078710
     22 S                     0.238024
     23 C                    -0.076339
     24 C                    -0.376504
     25 S                     0.140817
     26 C                     0.130053
     27 C                    -0.208430
     28 C                    -0.175472
     29 H                     0.097920
     30 H                     0.103841
     31 H                     0.100154
     32 H                     0.101747
     33 H                     0.107495
     34 H                     0.078395
     35 H                     0.088383
     36 H                     0.166864
     37 H                     0.142328
     38 H                     0.130903
  ---------------------------------------- 
  Sum of atomic charges =    -0.000990

Performing Hirshfeld population analysis.
Hirshfeld: reading atomic densities from disk.
Hirshfeld: performing integration.
Hirshfeld: integration completed in 156.90 sec.

          Hirshfeld Atomic Charges         

     Atom                 Charge (a.u.)    
  ---------------------------------------- 
      1 C                    -0.092949
      2 C                    -0.089344
      3 C                    -0.081218
      4 C                    -0.157170
      5 C                    -0.152735
      6 C                     0.118428
      7 C                    -0.114823
      8 C                     0.105538
      9 C                     0.218220
     10 N                    -0.365754
     11 N                    -0.467858
     12 C                     0.083652
     13 C                     0.205637
     14 S                     0.607101
     15 N                    -0.405669
     16 C                     0.114627
     17 N                    -0.314941
     18 S                     0.153293
     19 C                     0.046753
     20 C                    -0.123398
     21 C                    -0.078372
     22 S                     0.238083
     23 C                    -0.076743
     24 C                    -0.376897
     25 S                     0.140902
     26 C                     0.130481
     27 C                    -0.208327
     28 C                    -0.175725
     29 H                     0.097954
     30 H                     0.103791
     31 H                     0.100102
     32 H                     0.101834
     33 H                     0.107584
     34 H                     0.078336
     35 H                     0.088361
     36 H                     0.166977
     37 H                     0.142315
     38 H                     0.130961
  ---------------------------------------- 
  Sum of atomic charges =    -0.000990

Performing Hirshfeld population analysis.
Hirshfeld: reading atomic densities from disk.
Hirshfeld: performing integration.
Hirshfeld: integration completed in 155.82 sec.

          Hirshfeld Atomic Charges         

     Atom                 Charge (a.u.)    
  ---------------------------------------- 
      1 C                    -0.093183
      2 C                    -0.089059
      3 C                    -0.080928
      4 C                    -0.157525
      5 C                    -0.153093
      6 C                     0.118876
      7 C                    -0.115341
      8 C                     0.105852
      9 C                     0.218512
     10 N                    -0.365892
     11 N                    -0.467932
     12 C                     0.083519
     13 C                     0.205751
     14 S                     0.607109
     15 N                    -0.405637
     16 C                     0.114602
     17 N                    -0.314961
     18 S                     0.153349
     19 C                     0.046853
     20 C                    -0.123614
     21 C                    -0.078073
     22 S                     0.238122
     23 C                    -0.077088
     24 C                    -0.377208
     25 S                     0.140973
     26 C                     0.130831
     27 C                    -0.208233
     28 C                    -0.175939
     29 H                     0.097986
     30 H                     0.103747
     31 H                     0.100055
     32 H                     0.101908
     33 H                     0.107660
     34 H                     0.078287
     35 H                     0.088344
     36 H                     0.167065
     37 H                     0.142302
     38 H                     0.131010
  ---------------------------------------- 
  Sum of atomic charges =    -0.000990

Performing Hirshfeld population analysis.
Hirshfeld: reading atomic densities from disk.
Hirshfeld: performing integration.
Hirshfeld: integration completed in 156.21 sec.

          Hirshfeld Atomic Charges         

     Atom                 Charge (a.u.)    
  ---------------------------------------- 
      1 C                    -0.093395
      2 C                    -0.088808
      3 C                    -0.080673
      4 C                    -0.157830
      5 C                    -0.153399
      6 C                     0.119252
      7 C                    -0.115770
      8 C                     0.106113
      9 C                     0.218754
     10 N                    -0.366006
     11 N                    -0.467992
     12 C                     0.083408
     13 C                     0.205846
     14 S                     0.607114
     15 N                    -0.405609
     16 C                     0.114579
     17 N                    -0.314976
     18 S                     0.153397
     19 C                     0.046937
     20 C                    -0.123803
     21 C                    -0.077810
     22 S                     0.238146
     23 C                    -0.077382
     24 C                    -0.377453
     25 S                     0.141031
     26 C                     0.131117
     27 C                    -0.208148
     28 C                    -0.176118
     29 H                     0.098016
     30 H                     0.103708
     31 H                     0.100014
     32 H                     0.101972
     33 H                     0.107724
     34 H                     0.078247
     35 H                     0.088329
     36 H                     0.167135
     37 H                     0.142288
     38 H                     0.131051
  ---------------------------------------- 
  Sum of atomic charges =    -0.000990


         Hirshfeld-I Atomic Charges         

     Atom                 Charge (a.u.)    
  ---------------------------------------- 
      1 C                    -0.093394953663542
      2 C                    -0.088807888606540
      3 C                    -0.080672758032687
      4 C                    -0.157830436362667
      5 C                    -0.153398955041108
      6 C                    0.119252359748635
      7 C                    -0.115769844507343
      8 C                    0.106112551064065
      9 C                    0.218753936032480
     10 N                    -0.366006239483773
     11 N                    -0.467991929274346
     12 C                    0.083407932097939
     13 C                    0.205845861838551
     14 S                    0.607114338393753
     15 N                    -0.405608540997873
     16 C                    0.114579352052978
     17 N                    -0.314975945418037
     18 S                    0.153397310135610
     19 C                    0.046937349084907
     20 C                    -0.123802515742200
     21 C                    -0.077809994341708
     22 S                    0.238146304873851
     23 C                    -0.077382080544615
     24 C                    -0.377453050418439
     25 S                    0.141031451778060
     26 C                    0.131117401901686
     27 C                    -0.208148003343587
     28 C                    -0.176118080174817
     29 H                    0.098016117403880
     30 H                    0.103707929068355
     31 H                    0.100013957167790
     32 H                    0.101971602982076
     33 H                    0.107723940827571
     34 H                    0.078247028112239
     35 H                    0.088329026157273
     36 H                    0.167135443048115
     37 H                    0.142288312026105
     38 H                    0.131051410981420
  ---------------------------------------- 
  Sum of atomic charges =    -0.000990299175945

Hirshiter_convergence_thresh = 0.0005000000
Hirshiter scheme takes 25 iteration to converge

Hirshfeld-I completed in 4231.64 (cpu) 4043.70 (wall) 
 -----------------------------------------------------------------
                    Cartesian Multipole Moments
 -----------------------------------------------------------------
    Charge (ESU x 10^10)
                 0.0000
    Dipole Moment (Debye)
         X       0.7289      Y       1.0579      Z      -0.0396
       Tot       1.2853
    Quadrupole Moments (Debye-Ang)
        XX    -141.1819     XY      -0.0392     YY    -179.6196
        XZ      -3.1580     YZ      -1.0456     ZZ    -184.4684
    Octopole Moments (Debye-Ang^2)
       XXX     156.1694    XXY      64.7978    XYY       3.3028
       YYY     -18.1788    XXZ     -14.4940    XYZ      51.8038
       YYZ      -5.6662    XZZ     -15.6901    YZZ      -4.6215
       ZZZ      -5.0584
    Hexadecapole Moments (Debye-Ang^3)
      XXXX  -21225.7199   XXXY    -222.8160   XXYY   -4308.0028
      XYYY     151.0040   YYYY   -2760.7850   XXXZ    -381.4370
      XXYZ      24.1027   XYYZ      75.6515   YYYZ      28.3600
      XXZZ   -4242.5870   XYZZ     -26.5339   YYZZ    -571.8267
      XZZZ      21.4039   YZZZ      31.9387   ZZZZ    -742.3090
 -----------------------------------------------------------------
Archival summary:
1\1\chiqspirix\SP\ProcedureUnspecified\BasisUnspecified\442010\Andres\SunJun400:40:482017SunJun400:40:482017\0\\#,ProcedureUnspecified,BasisUnspecified,\\0,1\S\C,1,1.72583\C,2,1.36814,1,109.132\H,3,1.08006,2,123.974,1,179.174,0\N,3,1.35639,2,116.224,1,0.86907,0\C,5,1.29715,3,111.016,2,-0.308639,0\C,2,1.44739,1,123.162,3,-178.222,0\C,7,1.36796,2,128.672,1,142.615,0\C,8,1.42686,7,114.398,2,179.893,0\C,9,1.3671,8,112.129,7,-0.217635,0\H,10,1.07644,9,128.399,8,179.004,0\C,9,1.44027,8,111.802,7,178.084,0\H,12,1.07854,9,124.511,8,-179.333,0\C,12,1.34253,9,112.004,8,-0.114814,0\H,14,1.07763,12,127.149,9,-178.683,0\C,6,1.46315,5,126.431,3,179.599,0\N,16,1.30491,6,116.404,5,173.209,0\C,17,1.35488,16,121.03,6,178.951,0\H,18,1.0828,17,114.706,16,-178.065,0\C,18,1.36872,17,125.815,16,0.57274,0\C,20,1.42446,18,114.898,17,-0.884805,0\N,21,1.33542,20,127.092,18,-179.585,0\C,16,1.4315,6,123.848,5,-7.74534,0\N,23,1.33365,16,127.981,6,0.569141,0\C,20,1.47503,18,121.105,17,-178.406,0\C,25,1.39406,20,121.153,18,135.77,0\H,26,1.08041,25,119.749,20,4.61005,0\C,26,1.38401,25,120.48,20,-174.885,0\H,28,1.08161,26,119.755,25,178.666,0\C,28,1.3869,26,120.376,25,-0.536404,0\H,30,1.08113,28,120.228,26,179.239,0\C,30,1.3861,28,119.559,26,-0.803997,0\H,32,1.0815,30,120.317,28,-179.284,0\C,32,1.38417,30,120.161,28,0.982864,0\H,34,1.08204,32,119.929,30,-178.82,0\S,24,1.60349,23,106.187,16,-179.692,0\S,10,1.70837,9,110.962,8,-0.208283,0\S,8,1.74353,7,134.128,2,-2.53647,0\\\@

 Total job time:  5271.11s(wall), 9082.77s(cpu) 
 Sun Jun  4 00:40:48 2017

        *************************************************************
        *                                                           *
        *  Thank you very much for using Q-Chem.  Have a nice day.  *
        *                                                           *
        *************************************************************


0 sent ACK to 0 
now end server 0 ... 
cleanup process ... done
