
Running Job 1 of 1 C306_3/C306_135.qcin
qchem C306_3/C306_135.qcin_54038.0 /tmpu/cab_g/afmv_a/scratch_qchem/qchem54038/ 1
/tmpu/appuserlic/qchem4.4/serial-multicore/exe/qcprog.exe_s C306_3/C306_135.qcin_54038.0 /tmpu/cab_g/afmv_a/scratch_qchem/qchem54038/
Check license passed

                  Welcome to Q-Chem
     A Quantum Leap Into The Future Of Chemistry


 Q-Chem 4.4, Q-Chem, Inc., Pleasanton, CA (2016)

 Y. Shao,  Z. Gan,  E. Epifanovsky,  A. T. B. Gilbert,  M. Wormit,  
 J. Kussmann,  A. W. Lange,  A. Behn,  J. Deng,  X. Feng,  D. Ghosh,  
 M. Goldey,  P. R. Horn,  L. D. Jacobson,  I. Kaliman,  F. Rob,  
 R. Z. Khaliullin,  T. Kus,  A. Landau,  J. Liu,  E. I. Proynov,  Y. M. Rhee,  
 R. M. Richard,  M. A. Rohrdanz,  R. P. Steele,  E. J. Sundstrom,  
 H. L. Woodcock III,  P. M. Zimmerman,  D. Zuev,  B. Albrecht,  E. Alguire,  
 B. Austin,  S. A. Baeppler,  G. J. O. Beran,  Y. A. Bernard,  E. Berquist,  
 K. Brandhorst,  K. B. Bravaya,  S. T. Brown,  D. Casanova,  C.-M. Chang,  
 Y. Chen,  S. H. Chien,  K. D. Closser,  M. P. Coons,  D. L. Crittenden,  
 S. Dasgupta,  M. Diedenhofen,  R. A. DiStasio Jr.,  H. Do,  A. D. Dutoi,  
 R. G. Edgar,  P.-T. Fang,  S. Fatehi,  Q. Feng,  L. Fusti-Molnar,  
 A. Ghysels,  A. Golubeva-Zadorozhnaya,  J. Gomes,  A. Gunina,  
 M. W. D. Hanson-Heine,  P. H. P. Harbach,  A. W. Hauser,  J. E. Herr,  
 E. G. Hohenstein,  Z. C. Holden,  K. Hui,  T.-C. Jagau,  H. Ji,  B. Kaduk,  
 K. Khistyaev,  Jaehoon Kim,  Jihan Kim,  R. A. King,  P. Klunzinger,  
 K. Koh,  D. Kosenkov,  T. Kowalczyk,  C. M. Krauter,  A. Kunitsa,  
 K. U. Lao,  A. Laurent,  K. V. Lawler,  J. Lee,  D. Lefrancois,  S. Lehtola,  
 S. V. Levchenko,  C. Y. Lin,  Y.-S. Lin,  F. Liu,  E. Livshits,  
 R. C. Lochan,  A. Luenser,  P. Manohar,  S. F. Manzer,  S.-P. Mao,  Y. Mao,  
 N. Mardirossian,  A. V. Marenich,  L. A. Martinez-Martinez,  S. A. Maurer,  
 N. J. Mayhall,  J.-M. Mewes,  A. F. Morrison,  K. Nanda,  T. S. Nguyen-Beck,  
 C. M. Oana,  R. Olivares-Amaya,  D. P. O'Neill,  J. A. Parkhill,  
 T. M. Perrine,  R. Peverati,  P. A. Pieniazek,  F. Plasser,  A. Prociuk,  
 D. R. Rehn,  E. Rosta,  N. J. Russ,  N. Sergueev,  S. M. Sharada,  
 S. Sharma,  D. W. Small,  A. Sodt,  T. Stauch,  T. Stein,  D. Stuck,  
 Y.-C. Su,  A. J. W. Thom,  T. Tsuchimochi,  L. Vogt,  O. Vydrov,  T. Wang,  
 M. A. Watson,  J. Wenzel,  A. White,  C. F. Williams,  V. Vanovschi,  
 K. Yao,  S. Yeganeh,  S. R. Yost,  Z.-Q. You,  I. Y. Zhang,  X. Zhang,  
 Y. Zhao,  B. R. Brooks,  G. K. L. Chan,  D. M. Chipman,  C. J. Cramer,  
 W. A. Goddard III,  M. S. Gordon,  W. J. Hehre,  A. Klamt,  
 H. F. Schaefer III,  M. W. Schmidt,  C. D. Sherrill,  D. G. Truhlar,  
 A. Warshel,  X. Xu,  A. Aspuru-Guzik,  R. Baer,  A. T. Bell,  N. A. Besley,  
 J.-D. Chai,  A. Dreuw,  B. D. Dunietz,  T. R. Furlani,  S. R. Gwaltney,  
 C.-P. Hsu,  Y. Jung,  J. Kong,  D. S. Lambrecht,  W. Liang,  C. Ochsenfeld,  
 V. A. Rassolov,  L. V. Slipchenko,  J. E. Subotnik,  T. Van Voorhis,  
 J. M. Herbert,  A. I. Krylov,  P. M. W. Gill,  M. Head-Gordon

 Contributors to earlier versions of Q-Chem not listed above: 
 R. D. Adamson,  J. Baker,  E. F. C. Byrd,  A. K. Chakraborty,  C.-L. Cheng,  
 H. Dachsel,  R. J. Doerksen,  G. Hawkins,  A. Heyden,  S. Hirata,  
 G. Kedziora,  F. J. Keil,  C. Kelley,  P. P. Korambath,  W. Kurlancheek,  
 A. M. Lee,  M. S. Lee,  D. Liotard,  I. Lotan,  P. E. Maslen,  N. Nair,  
 D. Neuhauser,  R. Olson,  B. Peters,  J. Ritchie,  N. E. Schultz,  
 N. Shenvi,  A. C. Simmonett,  K. S. Thanthiriwatte,  Q. Wu,  W. Zhang

 Please cite Q-Chem as follows:
 Y. Shao et al., Mol. Phys. 113, 184-215 (2015)
 DOI: 10.1080/00268976.2014.952696

 Q-Chem 4.4.2 for Intel X86 Linux

 Parts of Q-Chem use Armadillo 5.200.1 (Boston Tea Smuggler).
 http://arma.sourceforge.net/

 Q-Chem begins on Wed Jun  7 21:01:41 2017  

Host: 
0

     Scratch files written to /tmpu/cab_g/afmv_a/scratch_qchem/qchem54038//
 Dec716 11556_ 22328  22283 4050   
Processing $rem in /tmpu/appuserlic/qchem4.4/serial-multicore/config/preferences.
 MEM_TOTAL  2000 
FILE_GEOM_ORG=        593

Checking the input file for inconsistencies... 	...done.

--------------------------------------------------------------
User input:
--------------------------------------------------------------
$comment
OPTIMIZATION
$end

$rem
JOBTYPE OPT
EXCHANGE omegaB97X-D
BASIS cc-pVTZ
$end

$molecule
0 1
C          0.00000        0.00000        0.00000
C          1.38599        0.00000        0.00000
C         -0.68515       -1.20581        0.00000
C          2.08055       -1.19709        0.02226
C          0.00742       -2.40411        0.01179
C          1.40063       -2.41271        0.04151
C          2.15950       -3.67324        0.15696
C          3.15000       -3.81753        1.08952
C          1.92849       -4.81544       -0.65861
N          3.90172       -4.92812        1.27968
N          1.02636       -4.93526       -1.63501
C          2.72047       -5.99481       -0.47371
C          3.72589       -5.99344        0.54686
S          1.20518       -6.42345       -2.22449
N          2.39935       -6.98227       -1.31015
C          4.58521       -7.13898        0.84639
N          4.63628       -8.25491        0.18914
S          5.66574       -7.04518        2.20635
C          5.53850       -9.10417        0.74263
C          6.20238       -8.64513        1.84759
C          7.23575       -9.32194        2.60049
S          7.08526      -10.96911        3.11421
C          8.44314       -8.83529        3.02004
C          8.60789      -10.97753        3.89043
S          9.23579       -7.28673        2.90071
C          9.23042       -9.76738        3.75859
C         10.58620       -7.90157        3.83271
C         10.46838       -9.18453        4.20880
H         -0.54342        0.93472        0.00000
H          1.93260        0.93382       -0.01501
H         -1.76734       -1.21268        0.00047
H          3.16263       -1.19509        0.00785
H         -0.53593       -3.33924        0.01382
H          3.36185       -2.99842        1.76492
H          5.68114      -10.08542        0.31444
H          8.95628      -11.85587        4.40459
H         11.39958       -7.22882        4.05114
H         11.21086       -9.70200        4.79568
$end

$opt
CONSTRAINT
tors 4 6 7 8 47.06187
tors 10 13 16 18 4.63242
tors 18 20 21 22 135.00000
ENDCONSTRAINT
$end
--------------------------------------------------------------
 ----------------------------------------------------------------
             Standard Nuclear Orientation (Angstroms)
    I     Atom           X                Y                Z
 ----------------------------------------------------------------
    1      C       7.5766902913     2.2718493205    -0.4912748267
    2      C       6.5961856079     2.8770746719     0.2789726141
    3      C       7.3177351471     1.0496611192    -1.0934430028
    4      C       5.3588618572     2.2745652107     0.4271139467
    5      C       6.0846873773     0.4404079713    -0.9381404009
    6      C       5.0835112754     1.0562498751    -0.1895574028
    7      C       3.7293960653     0.4773069520    -0.0928860526
    8      C       2.6177538906     1.2401450846    -0.3250662988
    9      C       3.4699425069    -0.8833468894     0.2302947944
   10      N       1.3353780484     0.8081638801    -0.2654142214
   11      N       4.3713182931    -1.8304825840     0.4986378537
   12      C       2.1184823725    -1.3528821239     0.3039568323
   13      C       1.0557353875    -0.4304350032     0.0354525802
   14      S       3.5305026588    -3.1701582612     0.8027281168
   15      N       2.0254134935    -2.6443010158     0.6223945955
   16      C      -0.3620719924    -0.7904908172     0.0598045693
   17      N      -0.8595334282    -1.9330313609     0.4162013960
   18      S      -1.5381135982     0.3959143652    -0.4251733758
   19      C      -2.2126367968    -1.9275323112     0.3128781622
   20      C      -2.7806393490    -0.7640121751    -0.1298237367
   21      C      -4.1890082325    -0.4749912040    -0.2902846642
   22      S      -5.2757472272    -1.5587490819    -1.0929002054
   23      C      -4.8878687232     0.6230504863     0.1298813720
   24      C      -6.6260733377    -0.5334324115    -0.8776430980
   25      S      -4.4523849257     2.0981434271     0.9514812886
   26      C      -6.2746283540     0.6024210744    -0.2025788855
   27      C      -6.1086501724     2.6576921596     0.8333709920
   28      C      -6.9463703228     1.8019402990     0.2273798164
   29      H       8.5375959434     2.7500443605    -0.6216458600
   30      H       6.7905871458     3.8234739417     0.7663780396
   31      H       8.0789203986     0.5720606491    -1.6964997312
   32      H       4.5995632739     2.7418013049     1.0405182735
   33      H       5.8916525812    -0.5117053105    -1.4134501172
   34      H       2.7398921280     2.2788699059    -0.6045654420
   35      H      -2.7708927876    -2.8187323081     0.5591650323
   36      H      -7.5917323478    -0.8106247366    -1.2622004335
   37      H      -6.3445690938     3.6310759284     1.2318149063
   38      H      -7.9933696038     2.0074389054     0.0691309172
 ----------------------------------------------------------------
 Molecular Point Group                 C1    NOp =  1
 Largest Abelian Subgroup              C1    NOp =  1
 Nuclear Repulsion Energy =  2878.4605485761 hartrees
 There are      111 alpha and      111 beta electrons
 Requested basis set is cc-pVTZ
 There are 348 shells and 996 basis functions

 Total QAlloc Memory Limit   2000 MB
 Mega-Array Size        61 MB
 MEM_STATIC part        62 MB
 A cutoff of  1.0D-11 yielded  28626 shell pairs
 There are    226386 function pairs (    295706 Cartesian)
 
 -------------------------------------------------------
 OpenMP Integral Computing Module                       
 Release: version 1.0, May 2013, Q-Chem Inc. Pittsburgh 
 -------------------------------------------------------
 Integral Job Info:
 Integral job number is                      11
 Integral operator is                         1
 short-range coefficients              22203600
 long-range coefficients              100000000
 Omega coefficients                         200
 if combine SR and LR in K                    1
 Integral screening is                        0
 Integral computing path is                   2
 max size of driver memory is            800000
 size of driver memory is                776718
 size of scratch memory is             26248924
 max col of scratch BK array              10000
 max len of scratch array in speh3          662
 max len of scratch index in speh4           32
 max int batch size is                      520
 min int batch size is                       52
 fixed nKL is                                52
 max L of basis functions is                  3
 order of int derivative is                   0
 number of shells is                        348
 number of basis is                        1146
 number of cartesian basis is              1146
 number of contracted shell pairs         28626
 number of primitive shell pairs          90881
 maxK2 (contraction) of shell pair          121
 max number of K2 of shell pair               1
 max number of CS2 of shell pair           3891
 max number of PS2 of shell pair          11494
 mem total for path MDJ                  790440
 -------------------------------------------------------
 Smallest overlap matrix eigenvalue = 3.11E-05

 Scale SEOQF with 1.000000e-02/1.000000e-01/1.000000e-01

 Standard Electronic Orientation quadrupole field applied
 Nucleus-field energy     =     0.0000000560 hartrees
 Guess from superposition of atomic densities
 Warning:  Energy on first SCF cycle will be non-variational
 Long-range K will be added via erf
 Coulomb attenuation parameter = 0.2 bohr**(-1)
 A restricted hybrid HF-DFT SCF calculation will be
 performed using Pulay DIIS extrapolation
 Exchange:     0.2220 Hartree-Fock + 1.0000 wB97X-D + LR-HF
 Correlation:  1.0000 wB97X-D
 Using SG-2 standard quadrature grid
 Dispersion:   Grimme D
 SCF converges when DIIS error is below 1.0E-08
 using 16 threads for integral computing 
 using 16 threads for integral computing 
 K construction time:  CPU 67.56 s  wall 4.43 s
 -------------------------------------------------------
 OpenMP BLAS3 based DFT computing Module                
 Release: version 1.0, May 2013, Q-Chem Inc. Pittsburgh 
 -------------------------------------------------------
 ---------------------------------------
  Cycle       Energy         DIIS Error
 ---------------------------------------
    1   -2589.8700533483      1.85E-02
 K construction time:  CPU 1035.28 s  wall 67.52 s
    2   -2579.6185758095      1.35E-03
 K construction time:  CPU 984.98 s  wall 64.20 s
    3   -2579.6555756999      1.35E-03
 K construction time:  CPU 949.62 s  wall 61.91 s
    4   -2579.8548394446      2.06E-04
 K construction time:  CPU 872.61 s  wall 56.87 s
    5   -2579.8590019074      1.14E-04
 K construction time:  CPU 830.81 s  wall 54.18 s
    6   -2579.8605346582      3.58E-05
 K construction time:  CPU 768.29 s  wall 50.08 s
    7   -2579.8607000495      1.48E-05
 K construction time:  CPU 726.63 s  wall 47.37 s
    8   -2579.8607381172      5.35E-06
 K construction time:  CPU 691.53 s  wall 45.13 s
    9   -2579.8607469029      3.71E-06
 K construction time:  CPU 652.97 s  wall 42.56 s
   10   -2579.8607499857      1.13E-06
 K construction time:  CPU 593.93 s  wall 38.70 s
   11   -2579.8607503759      6.45E-07
 K construction time:  CPU 545.11 s  wall 35.46 s
   12   -2579.8607504817      1.91E-07
 K construction time:  CPU 484.58 s  wall 31.56 s
   13   -2579.8607504933      9.48E-08
 K construction time:  CPU 418.25 s  wall 27.16 s
   14   -2579.8607504961      3.07E-08
 K construction time:  CPU 366.05 s  wall 23.69 s
   15   -2579.8607504990      1.34E-08
 K construction time:  CPU 1031.22 s  wall 67.27 s
   16   -2579.8607504932      4.59E-09 Convergence criterion met
 ---------------------------------------
 SCF time:  CPU 14781.66 s  wall 985.79 s
 SCF   energy in the final basis set = -2579.8607504932
 Total energy in the final basis set = -2579.8607504932
 
 --------------------------------------------------------------
 
                    Orbital Energies (a.u.)
 --------------------------------------------------------------
 
 Alpha MOs
 -- Occupied --
-89.149 -89.090 -89.087 -89.076 -14.486 -14.482 -14.454 -14.443
-10.365 -10.362 -10.357 -10.356 -10.341 -10.341 -10.335 -10.331
-10.329 -10.325 -10.324 -10.322 -10.312 -10.312 -10.304 -10.297
-10.296 -10.296 -10.295 -10.295  -8.159  -8.105  -8.102  -8.091
 -6.110  -6.104  -6.103  -6.054  -6.051  -6.050  -6.048  -6.047
 -6.045  -6.041  -6.037  -6.032  -1.146  -1.086  -1.065  -1.022
 -1.010  -0.975  -0.956  -0.925  -0.920  -0.899  -0.873  -0.860
 -0.856  -0.836  -0.826  -0.801  -0.774  -0.744  -0.734  -0.713
 -0.705  -0.698  -0.687  -0.662  -0.650  -0.630  -0.625  -0.614
 -0.607  -0.598  -0.572  -0.564  -0.558  -0.549  -0.543  -0.530
 -0.529  -0.524  -0.514  -0.514  -0.509  -0.502  -0.495  -0.484
 -0.478  -0.475  -0.469  -0.456  -0.449  -0.438  -0.436  -0.433
 -0.430  -0.423  -0.420  -0.400  -0.387  -0.374  -0.368  -0.363
 -0.359  -0.352  -0.340  -0.338  -0.323  -0.305  -0.275
 -- Virtual --
 -0.050   0.005   0.026   0.042   0.053   0.057   0.069   0.079
  0.083   0.084   0.097   0.107   0.118   0.127   0.135   0.137
  0.143   0.143   0.149   0.156   0.158   0.167   0.169   0.175
  0.178   0.189   0.192   0.210   0.217   0.221   0.235   0.239
  0.241   0.244   0.260   0.267   0.273   0.282   0.287   0.291
  0.294   0.302   0.304   0.307   0.313   0.315   0.323   0.326
  0.329   0.332   0.335   0.338   0.343   0.345   0.353   0.354
  0.357   0.359   0.363   0.374   0.375   0.382   0.384   0.386
  0.388   0.389   0.392   0.399   0.403   0.404   0.407   0.410
  0.412   0.416   0.427   0.427   0.431   0.435   0.436   0.439
  0.442   0.445   0.450   0.452   0.455   0.458   0.463   0.465
  0.466   0.467   0.468   0.470   0.475   0.480   0.487   0.491
  0.494   0.497   0.501   0.503   0.506   0.507   0.511   0.518
  0.521   0.524   0.529   0.532   0.539   0.541   0.547   0.551
  0.554   0.555   0.561   0.563   0.566   0.570   0.572   0.576
  0.581   0.592   0.601   0.606   0.609   0.610   0.620   0.624
  0.627   0.630   0.640   0.641   0.648   0.652   0.656   0.660
  0.667   0.676   0.679   0.685   0.693   0.698   0.706   0.712
  0.715   0.721   0.724   0.727   0.733   0.735   0.742   0.748
  0.753   0.765   0.766   0.768   0.770   0.774   0.777   0.782
  0.789   0.795   0.799   0.801   0.807   0.810   0.817   0.822
  0.824   0.826   0.832   0.840   0.845   0.849   0.849   0.856
  0.861   0.862   0.871   0.876   0.882   0.887   0.892   0.894
  0.898   0.904   0.910   0.916   0.920   0.925   0.929   0.933
  0.942   0.943   0.952   0.956   0.956   0.960   0.964   0.970
  0.979   0.981   0.985   0.992   0.995   1.005   1.010   1.014
  1.024   1.026   1.037   1.042   1.043   1.046   1.052   1.060
  1.062   1.070   1.082   1.085   1.091   1.096   1.098   1.107
  1.112   1.116   1.119   1.123   1.128   1.136   1.147   1.153
  1.158   1.159   1.170   1.173   1.187   1.192   1.201   1.205
  1.208   1.219   1.225   1.227   1.233   1.244   1.251   1.253
  1.255   1.260   1.272   1.277   1.284   1.287   1.299   1.304
  1.314   1.317   1.326   1.334   1.346   1.347   1.354   1.363
  1.366   1.369   1.383   1.389   1.394   1.398   1.408   1.413
  1.417   1.420   1.428   1.435   1.439   1.445   1.449   1.451
  1.454   1.465   1.470   1.470   1.483   1.484   1.486   1.490
  1.492   1.497   1.515   1.519   1.525   1.542   1.547   1.548
  1.559   1.566   1.571   1.574   1.586   1.591   1.600   1.605
  1.609   1.618   1.624   1.626   1.634   1.645   1.649   1.650
  1.655   1.662   1.665   1.673   1.678   1.680   1.686   1.692
  1.700   1.705   1.712   1.716   1.727   1.732   1.739   1.751
  1.758   1.762   1.769   1.773   1.778   1.781   1.792   1.807
  1.822   1.833   1.835   1.843   1.856   1.870   1.874   1.889
  1.895   1.897   1.902   1.911   1.925   1.932   1.938   1.944
  1.954   1.960   1.966   1.974   1.981   1.985   1.992   2.004
  2.012   2.025   2.030   2.032   2.035   2.039   2.049   2.070
  2.071   2.080   2.085   2.092   2.102   2.114   2.115   2.123
  2.129   2.141   2.149   2.158   2.168   2.170   2.171   2.189
  2.193   2.197   2.202   2.209   2.213   2.229   2.238   2.246
  2.251   2.260   2.267   2.269   2.273   2.283   2.287   2.293
  2.318   2.326   2.333   2.336   2.338   2.349   2.351   2.359
  2.369   2.375   2.388   2.396   2.404   2.415   2.419   2.422
  2.426   2.435   2.439   2.454   2.458   2.467   2.474   2.481
  2.483   2.492   2.494   2.495   2.502   2.505   2.509   2.527
  2.530   2.537   2.539   2.547   2.549   2.560   2.570   2.570
  2.587   2.593   2.606   2.609   2.612   2.620   2.634   2.642
  2.649   2.656   2.662   2.672   2.674   2.681   2.690   2.704
  2.716   2.721   2.728   2.738   2.754   2.758   2.767   2.774
  2.775   2.779   2.782   2.787   2.788   2.798   2.804   2.809
  2.814   2.825   2.827   2.831   2.834   2.839   2.848   2.851
  2.864   2.874   2.886   2.898   2.902   2.905   2.911   2.917
  2.928   2.933   2.937   2.947   2.950   2.962   2.970   2.971
  2.985   2.989   2.994   2.998   3.002   3.007   3.015   3.018
  3.023   3.028   3.036   3.038   3.046   3.051   3.059   3.064
  3.069   3.074   3.076   3.080   3.083   3.087   3.097   3.098
  3.101   3.105   3.107   3.118   3.121   3.124   3.130   3.136
  3.136   3.147   3.149   3.151   3.155   3.159   3.163   3.165
  3.175   3.178   3.179   3.188   3.190   3.195   3.195   3.203
  3.207   3.209   3.221   3.223   3.226   3.229   3.236   3.240
  3.248   3.250   3.261   3.266   3.268   3.275   3.281   3.284
  3.286   3.288   3.289   3.296   3.303   3.306   3.311   3.314
  3.319   3.323   3.327   3.341   3.347   3.355   3.359   3.366
  3.371   3.376   3.383   3.385   3.394   3.395   3.398   3.407
  3.409   3.423   3.426   3.433   3.438   3.441   3.450   3.459
  3.461   3.462   3.470   3.475   3.481   3.484   3.486   3.494
  3.502   3.503   3.516   3.522   3.529   3.531   3.536   3.547
  3.558   3.565   3.568   3.570   3.575   3.587   3.589   3.593
  3.604   3.611   3.621   3.637   3.640   3.647   3.671   3.674
  3.683   3.686   3.693   3.695   3.710   3.715   3.723   3.737
  3.742   3.752   3.761   3.772   3.777   3.784   3.786   3.793
  3.800   3.805   3.819   3.827   3.838   3.841   3.853   3.855
  3.859   3.860   3.865   3.870   3.881   3.886   3.888   3.894
  3.897   3.902   3.905   3.915   3.928   3.936   3.951   3.951
  3.954   3.965   3.970   3.974   3.979   3.984   3.992   3.999
  4.005   4.009   4.017   4.031   4.036   4.044   4.051   4.061
  4.064   4.077   4.086   4.091   4.095   4.120   4.128   4.135
  4.138   4.150   4.163   4.164   4.168   4.174   4.183   4.188
  4.197   4.200   4.212   4.220   4.226   4.237   4.245   4.259
  4.266   4.270   4.277   4.281   4.290   4.301   4.319   4.326
  4.334   4.340   4.344   4.353   4.358   4.370   4.383   4.387
  4.394   4.401   4.404   4.422   4.426   4.428   4.431   4.434
  4.451   4.456   4.462   4.475   4.495   4.502   4.516   4.525
  4.528   4.542   4.555   4.562   4.579   4.584   4.591   4.600
  4.601   4.609   4.626   4.635   4.651   4.663   4.673   4.677
  4.690   4.709   4.730   4.741   4.748   4.750   4.773   4.778
  4.788   4.798   4.816   4.830   4.833   4.844   4.848   4.855
  4.863   4.865   4.883   4.888   4.898   4.905   4.928   4.940
  4.952   4.954   4.962   4.968   4.975   4.995   4.999   5.007
  5.019   5.035   5.052   5.068   5.070   5.074   5.082   5.090
  5.093   5.099   5.112   5.118   5.126   5.141   5.153   5.168
  5.182   5.209   5.213   5.226   5.244   5.250   5.265   5.274
  5.276   5.312   5.327   5.334   5.347   5.374   5.377   5.385
  5.399   5.432   5.439   5.471   5.495   5.510   5.518   5.539
  5.569   5.575   5.592   5.626   5.630   5.668   5.673   5.703
  5.728   5.751   5.763   5.768   5.794   5.821   5.831   5.869
  5.884   5.962   5.969   6.005   6.020   6.040   6.052   6.087
  6.131   6.160   6.163   6.187   6.207   6.231   6.250   6.301
  6.335   6.481   6.515   6.856   6.976   8.091   8.566   9.397
 10.070  10.703  11.121  11.136  11.628  12.012  12.290  12.660
 12.740  12.870  12.931  13.157  13.174  13.405  13.455  13.615
 13.822  13.908  13.973  14.680  15.706
 --------------------------------------------------------------
 
          Ground-State Mulliken Net Atomic Charges

     Atom                 Charge (a.u.)
  ----------------------------------------
      1 C                    -0.124173
      2 C                    -0.109228
      3 C                    -0.108923
      4 C                    -0.157092
      5 C                    -0.122291
      6 C                     0.120426
      7 C                     0.012145
      8 C                    -0.110976
      9 C                     0.035825
     10 N                    -0.172713
     11 N                    -0.279543
     12 C                    -0.014335
     13 C                     0.109968
     14 S                     0.413239
     15 N                    -0.223014
     16 C                    -0.010897
     17 N                    -0.138115
     18 S                     0.135066
     19 C                    -0.129143
     20 C                    -0.034118
     21 C                    -0.006476
     22 S                     0.140423
     23 C                    -0.057025
     24 C                    -0.224444
     25 S                     0.061583
     26 C                     0.046202
     27 C                    -0.142080
     28 C                    -0.176667
     29 H                     0.117768
     30 H                     0.116721
     31 H                     0.115855
     32 H                     0.130656
     33 H                     0.116615
     34 H                     0.137081
     35 H                     0.140307
     36 H                     0.131233
     37 H                     0.132818
     38 H                     0.127322
  ----------------------------------------
  Sum of atomic charges =     0.000000

 -----------------------------------------------------------------
                    Cartesian Multipole Moments
 -----------------------------------------------------------------
    Charge (ESU x 10^10)
                 0.0000
    Dipole Moment (Debye)
         X      -0.6107      Y       1.2830      Z      -0.4545
       Tot       1.4918
    Quadrupole Moments (Debye-Ang)
        XX    -145.0067     XY      -0.9852     YY    -175.2060
        XZ      -0.7966     YZ       5.3186     ZZ    -187.1210
    Octopole Moments (Debye-Ang^2)
       XXX    -138.3117    XXY      68.1207    XYY       8.9034
       YYY      10.7770    XXZ     -56.3467    XYZ      -8.3889
       YYZ      21.9985    XZZ       9.0847    YZZ      -9.9468
       ZZZ       4.4354
    Hexadecapole Moments (Debye-Ang^3)
      XXXX  -20246.8550   XXXY      33.2134   XXYY   -3954.9937
      XYYY    -138.9657   YYYY   -3314.8896   XXXZ     -94.6903
      XXYZ     176.3535   XYYZ       8.4777   YYYZ      56.5132
      XXZZ   -4054.6557   XYZZ     -43.8364   YYZZ    -686.8184
      XZZZ      29.3868   YZZZ       0.5014   ZZZZ    -667.6430
 -----------------------------------------------------------------
 Calculating analytic gradient of the SCF energy
 K construction time:  CPU 2567.82 s  wall 162.22 s
 Gradient of SCF Energy
            1           2           3           4           5           6
    1   0.0007325  -0.0006152  -0.0008663   0.0007069   0.0005334  -0.0002395
    2  -0.0000767  -0.0009186   0.0001973   0.0002895   0.0007324  -0.0000242
    3  -0.0001767   0.0000074   0.0005798  -0.0003333   0.0000195   0.0005832
            7           8           9          10          11          12
    1  -0.0002239  -0.0008612   0.0003414   0.0006609   0.0001465   0.0003666
    2  -0.0007993   0.0003706  -0.0004252   0.0000180   0.0001276   0.0006317
    3  -0.0002533   0.0002914   0.0005266  -0.0000745   0.0001852   0.0000695
           13          14          15          16          17          18
    1  -0.0010298   0.0003525  -0.0006614   0.0012445   0.0003071  -0.0003664
    2  -0.0008191   0.0002465   0.0002560  -0.0015091   0.0018129   0.0006211
    3  -0.0006148  -0.0001931   0.0000523  -0.0006482   0.0019225   0.0000938
           19          20          21          22          23          24
    1  -0.0006640  -0.0027453   0.0028881  -0.0014723   0.0001912  -0.0007122
    2  -0.0002858   0.0043348  -0.0021618  -0.0009355  -0.0018321  -0.0002885
    3   0.0032872  -0.0042095  -0.0007516   0.0001328   0.0034641  -0.0015719
           25          26          27          28          29          30
    1   0.0007444   0.0003513  -0.0019293   0.0006790  -0.0002652  -0.0002116
    2   0.0004547  -0.0003581   0.0002223  -0.0008681   0.0001661   0.0004126
    3  -0.0000559   0.0009919  -0.0004452   0.0002775  -0.0004731   0.0002679
           31          32          33          34          35          36
    1   0.0003785  -0.0000972   0.0001738   0.0005650   0.0001512   0.0003622
    2   0.0001056  -0.0003958  -0.0004310  -0.0002497  -0.0005242   0.0010985
    3  -0.0006342   0.0004572  -0.0002691  -0.0002716  -0.0016318  -0.0002358
           37          38
    1   0.0007718   0.0003119
    2   0.0003312   0.0004736
    3  -0.0003301  -0.0000361
 Max gradient component =       4.335E-03
 RMS gradient           =       1.061E-03
 Gradient time:  CPU 3002.44 s  wall 191.24 s
 Geometry Optimization Parameters
   NAtoms,    NIC,     NZ,  NCons,   NDum,   NFix, NCnnct, MaxDiis
       38     289       0       3       0       0       0       0


** CONSTRAINED OPTIMIZATION IN DELOCALIZED INTERNAL COORDINATES **
   Searching for a Minimum

   Optimization Cycle:   1

                       Coordinates (Angstroms)
     ATOM                X               Y               Z
      1  C         7.5766902913    2.2718493205   -0.4912748267
      2  C         6.5961856079    2.8770746719    0.2789726141
      3  C         7.3177351471    1.0496611192   -1.0934430028
      4  C         5.3588618572    2.2745652107    0.4271139467
      5  C         6.0846873773    0.4404079713   -0.9381404009
      6  C         5.0835112754    1.0562498751   -0.1895574028
      7  C         3.7293960653    0.4773069520   -0.0928860526
      8  C         2.6177538906    1.2401450846   -0.3250662988
      9  C         3.4699425069   -0.8833468894    0.2302947944
     10  N         1.3353780484    0.8081638801   -0.2654142214
     11  N         4.3713182931   -1.8304825840    0.4986378537
     12  C         2.1184823725   -1.3528821239    0.3039568323
     13  C         1.0557353875   -0.4304350032    0.0354525802
     14  S         3.5305026588   -3.1701582612    0.8027281168
     15  N         2.0254134935   -2.6443010158    0.6223945955
     16  C        -0.3620719924   -0.7904908172    0.0598045693
     17  N        -0.8595334282   -1.9330313609    0.4162013960
     18  S        -1.5381135982    0.3959143652   -0.4251733758
     19  C        -2.2126367968   -1.9275323112    0.3128781622
     20  C        -2.7806393490   -0.7640121751   -0.1298237367
     21  C        -4.1890082325   -0.4749912040   -0.2902846642
     22  S        -5.2757472272   -1.5587490819   -1.0929002054
     23  C        -4.8878687232    0.6230504863    0.1298813720
     24  C        -6.6260733377   -0.5334324115   -0.8776430980
     25  S        -4.4523849257    2.0981434271    0.9514812886
     26  C        -6.2746283540    0.6024210744   -0.2025788855
     27  C        -6.1086501724    2.6576921596    0.8333709920
     28  C        -6.9463703228    1.8019402990    0.2273798164
     29  H         8.5375959434    2.7500443605   -0.6216458600
     30  H         6.7905871458    3.8234739417    0.7663780396
     31  H         8.0789203986    0.5720606491   -1.6964997312
     32  H         4.5995632739    2.7418013049    1.0405182735
     33  H         5.8916525812   -0.5117053105   -1.4134501172
     34  H         2.7398921280    2.2788699059   -0.6045654420
     35  H        -2.7708927876   -2.8187323081    0.5591650323
     36  H        -7.5917323478   -0.8106247366   -1.2622004335
     37  H        -6.3445690938    3.6310759284    1.2318149063
     38  H        -7.9933696038    2.0074389054    0.0691309172
   Point Group: c1    Number of degrees of freedom:   108


   Energy is  -2579.860750493

              Constraints and their Current Values
                                        Value     Constraint
   Dihedral:        4   6   7   8       47.013       47.062
   Dihedral:       10  13  16  18        4.689        4.632
   Dihedral:       18  20  21  22      135.000      135.000

 Attempting to Generate Delocalized Internal Coordinates

   Using Lagrange Multiplier Algorithm


109 Hessian modes will be used to form the next step
  Hessian Eigenvalues:
    -0.977753   -0.977753    0.045000    0.045000    0.045000    0.045000
     0.045000    0.045000    0.045000    0.045000    0.045000    0.045000
     0.045000    0.045000    0.045001    0.045001    0.045001    0.045001
     0.045001    0.045002    0.045002    0.045003    0.045003    0.045004
     0.045005    0.045005    0.045007    0.045008    0.045008    0.045012
     0.045021    0.045031    0.045040    0.045052    0.159964    0.159978
     0.159978    0.159981    0.159982    0.159991    0.159991    0.159994
     0.160000    0.160000    0.219984    0.219994    0.225219    0.233057
     0.234605    0.234757    0.237025    0.247518    0.249693    0.249750
     0.249778    0.249982    0.249986    0.249988    0.249992    0.249995
     0.249997    0.249999    0.249999    0.250000    0.296261    0.304571
     0.308355    0.315684    0.324180    0.337612    0.350485    0.356840
     0.357284    0.357325    0.357370    0.358104    0.358490    0.359862
     0.361583    0.362480    0.365139    0.365895    0.369132    0.381392
     0.386878    0.389567    0.393560    0.413656    0.429805    0.432305
     0.470765    0.472706    0.474104    0.479079    0.480434    0.482725
     0.483543    0.486778    0.496421    0.509548    0.519731    0.527463
     0.543239    0.556243    0.579533    0.638655    0.653866    1.022753
     1.022753

 Minimum Search - Taking P-RFO Step
 Searching for Lamda that Maximizes Along the Constraint modes Only
 Value Taken    Lamda =   0.00000338
 Searching for Lamda that Minimizes Along All other modes
 Value Taken    Lamda =  -0.00093791
 Step Taken.  Stepsize is  0.121204

                             Maximum     Tolerance    Cnvgd?
         Gradient            0.003799       0.000300      NO
         Displacement        0.035197       0.001200      NO
         Energy change     *********       0.000001      NO


 New Cartesian Coordinates Obtained by Inverse Iteration

 Displacement from previous Coordinates is:  0.594488
 ----------------------------------------------------------------
             Standard Nuclear Orientation (Angstroms)
    I     Atom           X                Y                Z
 ----------------------------------------------------------------
    1      C       7.6147879994     2.2260352993    -0.4482051366
    2      C       6.6301451273     2.8615466025     0.2913377868
    3      C       7.3417602421     1.0076798629    -1.0522867956
    4      C       5.3750635031     2.2888704430     0.4138793145
    5      C       6.0897191873     0.4311729419    -0.9267018051
    6      C       5.0871542380     1.0733891238    -0.2035820420
    7      C       3.7277158019     0.5062328021    -0.1176442646
    8      C       2.6160175811     1.2672902548    -0.3562918277
    9      C       3.4681350652    -0.8560830901     0.1994456497
   10      N       1.3337457254     0.8325859703    -0.2958417557
   11      N       4.3705341032    -1.8029495214     0.4664544453
   12      C       2.1188588504    -1.3301256187     0.2680750091
   13      C       1.0565237064    -0.4072142226     0.0032512152
   14      S       3.5334235519    -3.1462926318     0.7654116749
   15      N       2.0282993077    -2.6229448646     0.5824210556
   16      C      -0.3602717605    -0.7723270579     0.0324452545
   17      N      -0.8502905621    -1.9201577248     0.3844440632
   18      S      -1.5413957513     0.4098762152    -0.4433174125
   19      C      -2.2044648440    -1.9128471413     0.3058310335
   20      C      -2.7786399075    -0.7481533672    -0.1219951104
   21      C      -4.1912909547    -0.4562806080    -0.2772006828
   22      S      -5.2634410470    -1.5636001031    -1.0611445251
   23      C      -4.9031249134     0.6422815326     0.1222479913
   24      C      -6.6327253238    -0.5682675440    -0.8327913978
   25      S      -4.4882166025     2.1340360019     0.9226802943
   26      C      -6.2948836708     0.5885371201    -0.1877456051
   27      C      -6.1572376225     2.6562920453     0.8251941461
   28      C      -6.9862662674     1.7784767992     0.2382107228
   29      H       8.5925960451     2.6765019891    -0.5497628717
   30      H       6.8382537720     3.8041168545     0.7790447203
   31      H       8.1068437349     0.5042671826    -1.6272474447
   32      H       4.6139440604     2.7780411667     1.0071854978
   33      H       5.8852307942    -0.5206830514    -1.3961410830
   34      H       2.7329007403     2.3083203280    -0.6300094131
   35      H      -2.7599238502    -2.8002569597     0.5714826666
   36      H      -7.5986529168    -0.8812147653    -1.1904113184
   37      H      -6.4136479766     3.6238841868     1.2250542509
   38      H      -8.0416637152     1.9544068482     0.0992320425
 ----------------------------------------------------------------
 Molecular Point Group                 C1    NOp =  1
 Largest Abelian Subgroup              C1    NOp =  1
 Nuclear Repulsion Energy =  2877.7426002848 hartrees
 There are      111 alpha and      111 beta electrons
 Applying Cartesian multipole field
    Component          Value
    ---------          -----
     (2,0,0)        1.00000E-12
     (0,2,0)        2.00000E-11
     (0,0,2)       -3.00000E-11
 Nucleus-field energy     =     0.0000000564 hartrees
 Requested basis set is cc-pVTZ
 There are 348 shells and 996 basis functions
 A cutoff of  1.0D-11 yielded  28612 shell pairs
 There are    226272 function pairs (    295547 Cartesian)
 Smallest overlap matrix eigenvalue = 3.11E-05
 Guess MOs from SCF MO coefficient file
 Reading MOs from coefficient file
 Reading MOs from coefficient file
 Long-range K will be added via erf
 Coulomb attenuation parameter = 0.2 bohr**(-1)
 A restricted hybrid HF-DFT SCF calculation will be
 performed using Pulay DIIS extrapolation
 Exchange:     0.2220 Hartree-Fock + 1.0000 wB97X-D + LR-HF
 Correlation:  1.0000 wB97X-D
 Using SG-2 standard quadrature grid
 Dispersion:   Grimme D
 SCF converges when DIIS error is below 1.0E-08
 Geometry optimization detected.  Setting ReadMinima to 0
 Setting SaveMinima to 0
 using 16 threads for integral computing 
 using 16 threads for integral computing 
 K construction time:  CPU 1037.28 s  wall 67.56 s
 -------------------------------------------------------
 OpenMP BLAS3 based DFT computing Module                
 Release: version 1.0, May 2013, Q-Chem Inc. Pittsburgh 
 -------------------------------------------------------
 ---------------------------------------
  Cycle       Energy         DIIS Error
 ---------------------------------------
    1   -2579.8587946475      3.19E-04
 K construction time:  CPU 1031.74 s  wall 67.30 s
    2   -2579.8610394619      3.15E-05
 K construction time:  CPU 766.28 s  wall 49.94 s
    3   -2579.8613288134      1.74E-05
 K construction time:  CPU 722.21 s  wall 47.14 s
    4   -2579.8613652733      1.19E-05
 K construction time:  CPU 690.01 s  wall 45.03 s
    5   -2579.8613847654      5.01E-06
 K construction time:  CPU 625.51 s  wall 40.83 s
    6   -2579.8613878796      1.77E-06
 K construction time:  CPU 567.57 s  wall 37.05 s
    7   -2579.8613882896      5.74E-07
 K construction time:  CPU 517.14 s  wall 33.64 s
    8   -2579.8613883428      2.44E-07
 K construction time:  CPU 467.07 s  wall 30.40 s
    9   -2579.8613883529      9.13E-08
 K construction time:  CPU 392.98 s  wall 25.49 s
   10   -2579.8613883539      3.04E-08
 K construction time:  CPU 354.37 s  wall 23.04 s
   11   -2579.8613883528      1.43E-08
 K construction time:  CPU 304.01 s  wall 19.67 s
   12   -2579.8613883530      5.76E-09 Convergence criterion met
 ---------------------------------------
 SCF time:  CPU 10163.42 s  wall 678.26 s
 SCF   energy in the final basis set = -2579.8613883530
 Total energy in the final basis set = -2579.8613883530
 
 --------------------------------------------------------------
 
                    Orbital Energies (a.u.)
 --------------------------------------------------------------
 
 Alpha MOs
 -- Occupied --
-89.149 -89.090 -89.087 -89.076 -14.485 -14.482 -14.454 -14.443
-10.365 -10.362 -10.357 -10.356 -10.341 -10.341 -10.335 -10.331
-10.329 -10.325 -10.324 -10.322 -10.312 -10.312 -10.304 -10.298
-10.296 -10.296 -10.295 -10.295  -8.159  -8.104  -8.102  -8.091
 -6.110  -6.104  -6.103  -6.053  -6.051  -6.050  -6.047  -6.047
 -6.045  -6.041  -6.037  -6.033  -1.146  -1.086  -1.065  -1.022
 -1.010  -0.975  -0.957  -0.925  -0.919  -0.899  -0.873  -0.860
 -0.856  -0.836  -0.825  -0.801  -0.774  -0.745  -0.733  -0.712
 -0.704  -0.698  -0.687  -0.662  -0.650  -0.631  -0.625  -0.615
 -0.608  -0.598  -0.572  -0.564  -0.558  -0.549  -0.542  -0.530
 -0.529  -0.524  -0.514  -0.514  -0.509  -0.502  -0.494  -0.484
 -0.478  -0.476  -0.469  -0.456  -0.449  -0.438  -0.436  -0.433
 -0.430  -0.423  -0.420  -0.400  -0.387  -0.374  -0.368  -0.363
 -0.359  -0.352  -0.340  -0.338  -0.323  -0.305  -0.275
 -- Virtual --
 -0.050   0.005   0.026   0.042   0.053   0.058   0.070   0.079
  0.083   0.083   0.098   0.107   0.118   0.127   0.135   0.138
  0.143   0.144   0.149   0.156   0.158   0.167   0.170   0.176
  0.178   0.189   0.193   0.211   0.217   0.221   0.236   0.239
  0.241   0.244   0.260   0.267   0.273   0.282   0.287   0.292
  0.294   0.303   0.304   0.307   0.313   0.315   0.323   0.326
  0.329   0.333   0.336   0.338   0.343   0.345   0.352   0.354
  0.358   0.360   0.363   0.374   0.375   0.381   0.384   0.386
  0.388   0.388   0.392   0.398   0.403   0.405   0.407   0.410
  0.412   0.415   0.427   0.428   0.431   0.435   0.437   0.439
  0.442   0.445   0.450   0.452   0.455   0.459   0.464   0.465
  0.466   0.467   0.469   0.470   0.474   0.480   0.487   0.492
  0.493   0.496   0.500   0.503   0.505   0.507   0.511   0.518
  0.522   0.524   0.529   0.532   0.539   0.541   0.547   0.551
  0.554   0.556   0.560   0.563   0.566   0.570   0.572   0.576
  0.581   0.592   0.601   0.604   0.608   0.610   0.619   0.624
  0.628   0.630   0.639   0.642   0.649   0.652   0.657   0.661
  0.667   0.676   0.680   0.686   0.695   0.699   0.705   0.712
  0.715   0.721   0.725   0.727   0.733   0.735   0.742   0.749
  0.754   0.766   0.766   0.768   0.770   0.775   0.777   0.782
  0.788   0.795   0.799   0.801   0.808   0.809   0.817   0.823
  0.824   0.826   0.832   0.839   0.846   0.849   0.849   0.856
  0.862   0.863   0.871   0.876   0.883   0.887   0.891   0.893
  0.898   0.904   0.910   0.917   0.920   0.925   0.930   0.933
  0.942   0.944   0.953   0.956   0.957   0.960   0.964   0.970
  0.979   0.980   0.984   0.992   0.996   1.005   1.012   1.015
  1.024   1.026   1.035   1.041   1.042   1.047   1.053   1.060
  1.062   1.069   1.081   1.085   1.091   1.098   1.098   1.106
  1.112   1.115   1.117   1.123   1.128   1.135   1.149   1.154
  1.158   1.160   1.170   1.173   1.187   1.193   1.203   1.205
  1.209   1.220   1.224   1.226   1.234   1.245   1.250   1.253
  1.256   1.260   1.272   1.277   1.284   1.286   1.299   1.304
  1.314   1.318   1.327   1.335   1.345   1.347   1.354   1.362
  1.366   1.368   1.381   1.389   1.396   1.398   1.409   1.413
  1.418   1.420   1.429   1.435   1.439   1.446   1.450   1.452
  1.454   1.467   1.470   1.471   1.484   1.485   1.487   1.490
  1.492   1.497   1.515   1.518   1.525   1.541   1.546   1.548
  1.559   1.565   1.571   1.574   1.586   1.592   1.602   1.605
  1.610   1.618   1.625   1.627   1.634   1.644   1.650   1.650
  1.654   1.661   1.666   1.673   1.678   1.680   1.687   1.692
  1.699   1.704   1.710   1.715   1.727   1.734   1.740   1.751
  1.758   1.761   1.770   1.773   1.776   1.781   1.791   1.806
  1.823   1.833   1.836   1.843   1.855   1.870   1.872   1.889
  1.895   1.898   1.903   1.911   1.926   1.932   1.938   1.944
  1.956   1.960   1.965   1.973   1.981   1.985   1.991   2.003
  2.012   2.025   2.031   2.033   2.035   2.039   2.047   2.070
  2.073   2.080   2.086   2.092   2.103   2.114   2.115   2.120
  2.128   2.140   2.150   2.158   2.168   2.170   2.172   2.190
  2.193   2.200   2.202   2.209   2.213   2.230   2.238   2.245
  2.251   2.261   2.267   2.270   2.274   2.283   2.286   2.293
  2.318   2.326   2.334   2.335   2.338   2.349   2.350   2.358
  2.371   2.374   2.389   2.395   2.405   2.417   2.419   2.424
  2.427   2.435   2.442   2.455   2.456   2.468   2.474   2.480
  2.483   2.491   2.494   2.495   2.503   2.505   2.509   2.530
  2.530   2.537   2.540   2.546   2.551   2.560   2.570   2.572
  2.589   2.594   2.606   2.609   2.610   2.619   2.634   2.641
  2.650   2.657   2.661   2.671   2.673   2.681   2.690   2.704
  2.716   2.721   2.729   2.737   2.754   2.758   2.768   2.772
  2.775   2.779   2.782   2.787   2.787   2.796   2.805   2.809
  2.813   2.825   2.828   2.829   2.834   2.840   2.849   2.851
  2.863   2.874   2.887   2.898   2.902   2.907   2.912   2.918
  2.927   2.933   2.938   2.945   2.951   2.963   2.970   2.973
  2.982   2.989   2.993   2.999   3.001   3.008   3.016   3.019
  3.022   3.026   3.037   3.037   3.045   3.051   3.058   3.064
  3.069   3.075   3.076   3.080   3.083   3.087   3.097   3.097
  3.101   3.105   3.107   3.117   3.121   3.123   3.130   3.136
  3.137   3.146   3.149   3.152   3.155   3.159   3.163   3.165
  3.176   3.179   3.179   3.189   3.190   3.193   3.196   3.204
  3.207   3.209   3.221   3.223   3.226   3.230   3.236   3.241
  3.248   3.251   3.260   3.265   3.270   3.274   3.280   3.284
  3.287   3.288   3.289   3.298   3.304   3.306   3.311   3.314
  3.318   3.324   3.328   3.342   3.348   3.354   3.359   3.366
  3.371   3.376   3.383   3.385   3.393   3.395   3.398   3.405
  3.411   3.422   3.426   3.433   3.438   3.442   3.451   3.458
  3.461   3.462   3.469   3.474   3.482   3.485   3.485   3.495
  3.501   3.503   3.517   3.523   3.530   3.531   3.536   3.548
  3.558   3.565   3.569   3.570   3.574   3.587   3.589   3.591
  3.605   3.611   3.620   3.636   3.641   3.646   3.670   3.675
  3.681   3.688   3.693   3.696   3.709   3.715   3.723   3.737
  3.742   3.753   3.761   3.773   3.778   3.785   3.788   3.794
  3.802   3.807   3.817   3.827   3.837   3.842   3.854   3.855
  3.860   3.861   3.865   3.871   3.881   3.885   3.888   3.892
  3.897   3.902   3.906   3.916   3.927   3.936   3.949   3.952
  3.956   3.964   3.971   3.973   3.979   3.985   3.991   3.997
  4.004   4.008   4.019   4.029   4.035   4.043   4.049   4.061
  4.062   4.077   4.084   4.090   4.096   4.117   4.128   4.135
  4.136   4.149   4.161   4.165   4.169   4.175   4.182   4.188
  4.198   4.200   4.213   4.219   4.227   4.235   4.245   4.258
  4.267   4.271   4.277   4.282   4.288   4.303   4.319   4.327
  4.332   4.342   4.344   4.355   4.357   4.371   4.384   4.387
  4.393   4.400   4.405   4.421   4.425   4.427   4.430   4.433
  4.450   4.455   4.463   4.474   4.495   4.504   4.516   4.525
  4.529   4.542   4.556   4.561   4.577   4.584   4.591   4.600
  4.601   4.609   4.626   4.636   4.652   4.662   4.673   4.678
  4.691   4.710   4.730   4.740   4.750   4.751   4.774   4.778
  4.790   4.795   4.815   4.830   4.833   4.844   4.847   4.855
  4.864   4.865   4.882   4.888   4.898   4.906   4.927   4.942
  4.952   4.954   4.964   4.968   4.976   4.996   4.999   5.007
  5.021   5.036   5.052   5.069   5.069   5.074   5.084   5.091
  5.093   5.098   5.112   5.119   5.126   5.139   5.152   5.169
  5.182   5.207   5.212   5.226   5.244   5.250   5.266   5.272
  5.277   5.311   5.327   5.333   5.348   5.372   5.377   5.386
  5.399   5.432   5.440   5.472   5.498   5.510   5.518   5.539
  5.569   5.576   5.592   5.626   5.632   5.669   5.675   5.704
  5.728   5.753   5.764   5.770   5.796   5.822   5.832   5.871
  5.885   5.963   5.971   6.007   6.020   6.040   6.053   6.089
  6.133   6.157   6.164   6.189   6.208   6.233   6.249   6.302
  6.336   6.478   6.516   6.857   6.979   8.092   8.569   9.410
 10.051  10.703  11.123  11.134  11.594  12.012  12.303  12.661
 12.753  12.871  12.933  13.142  13.159  13.406  13.464  13.619
 13.813  13.913  13.966  14.672  15.707
 --------------------------------------------------------------
 
          Ground-State Mulliken Net Atomic Charges

     Atom                 Charge (a.u.)
  ----------------------------------------
      1 C                    -0.123880
      2 C                    -0.109543
      3 C                    -0.109594
      4 C                    -0.154789
      5 C                    -0.123405
      6 C                     0.121874
      7 C                     0.013260
      8 C                    -0.109766
      9 C                     0.035557
     10 N                    -0.173343
     11 N                    -0.281360
     12 C                    -0.014313
     13 C                     0.109546
     14 S                     0.413462
     15 N                    -0.223083
     16 C                    -0.010477
     17 N                    -0.137944
     18 S                     0.136081
     19 C                    -0.132901
     20 C                    -0.032229
     21 C                    -0.005213
     22 S                     0.140603
     23 C                    -0.058379
     24 C                    -0.224824
     25 S                     0.062190
     26 C                     0.046343
     27 C                    -0.142711
     28 C                    -0.175804
     29 H                     0.117541
     30 H                     0.116870
     31 H                     0.115957
     32 H                     0.129871
     33 H                     0.116679
     34 H                     0.136405
     35 H                     0.140462
     36 H                     0.130678
     37 H                     0.132699
     38 H                     0.127482
  ----------------------------------------
  Sum of atomic charges =     0.000000

 -----------------------------------------------------------------
                    Cartesian Multipole Moments
 -----------------------------------------------------------------
    Charge (ESU x 10^10)
                 0.0000
    Dipole Moment (Debye)
         X      -0.6179      Y       1.2057      Z      -0.3529
       Tot       1.4000
    Quadrupole Moments (Debye-Ang)
        XX    -144.3341     XY      -0.9165     YY    -175.3459
        XZ      -0.9136     YZ       5.3570     ZZ    -187.3293
    Octopole Moments (Debye-Ang^2)
       XXX    -137.4319    XXY      62.3823    XYY       8.7011
       YYY       5.5761    XXZ     -47.6690    XYZ      -7.6163
       YYZ      23.7075    XZZ       8.7539    YZZ     -11.8061
       ZZZ       8.9354
    Hexadecapole Moments (Debye-Ang^3)
      XXXX  -20266.2396   XXXY      37.0594   XXYY   -3977.1496
      XYYY    -134.1244   YYYY   -3296.6468   XXXZ     -83.7661
      XXYZ     189.4355   XYYZ      14.7024   YYYZ      46.4996
      XXZZ   -4090.5159   XYZZ     -43.3487   YYZZ    -679.0617
      XZZZ      43.9458   YZZZ     -10.3252   ZZZZ    -641.9782
 -----------------------------------------------------------------
 Calculating analytic gradient of the SCF energy
 K construction time:  CPU 2554.07 s  wall 161.42 s
 Gradient of SCF Energy
            1           2           3           4           5           6
    1   0.0001299   0.0000611  -0.0001175   0.0002978  -0.0004182   0.0001657
    2   0.0000871  -0.0000428  -0.0000663   0.0001582   0.0004150  -0.0004005
    3  -0.0000464   0.0000357   0.0001322   0.0004309  -0.0002251  -0.0002420
            7           8           9          10          11          12
    1   0.0000434  -0.0006324   0.0000687   0.0004411  -0.0002170   0.0000198
    2  -0.0006688   0.0002577   0.0005377   0.0004266   0.0003042   0.0004339
    3   0.0005910  -0.0009295   0.0002547   0.0000628  -0.0001972  -0.0002213
           13          14          15          16          17          18
    1  -0.0003047   0.0002201  -0.0001253   0.0001043   0.0001399  -0.0000986
    2  -0.0004474  -0.0005417   0.0001233  -0.0009591   0.0004575   0.0000676
    3  -0.0000489   0.0001629   0.0000665   0.0005487   0.0003273  -0.0010909
           19          20          21          22          23          24
    1   0.0001568   0.0002859   0.0002196  -0.0000830  -0.0003235   0.0001340
    2   0.0005147   0.0009274  -0.0012260   0.0004942  -0.0008350   0.0002636
    3   0.0023008  -0.0018628  -0.0000778  -0.0008761   0.0019563  -0.0000404
           25          26          27          28          29          30
    1   0.0005422  -0.0003668  -0.0008889   0.0002014  -0.0000988  -0.0000926
    2   0.0001974  -0.0004095   0.0001392  -0.0000603   0.0000504   0.0000146
    3  -0.0001461   0.0009062  -0.0003946  -0.0003155  -0.0002355   0.0000643
           31          32          33          34          35          36
    1  -0.0000410   0.0001129   0.0000651   0.0001197   0.0000503  -0.0000465
    2   0.0000842  -0.0002618  -0.0002663  -0.0000282  -0.0003023   0.0003283
    3  -0.0001607   0.0003375   0.0001175  -0.0000345  -0.0009622  -0.0000918
           37          38
    1   0.0003196  -0.0000448
    2   0.0001166   0.0001168
    3  -0.0001156   0.0000196
 Max gradient component =       2.301E-03
 RMS gradient           =       5.073E-04
 Gradient time:  CPU 2987.38 s  wall 190.48 s
 Geometry Optimization Parameters
   NAtoms,    NIC,     NZ,  NCons,   NDum,   NFix, NCnnct, MaxDiis
       38     289       0       3       0       0       0       0

 Cartesian Hessian Update
 Hessian Updated using BFGS Update


** CONSTRAINED OPTIMIZATION IN DELOCALIZED INTERNAL COORDINATES **
   Searching for a Minimum

   Optimization Cycle:   2

                       Coordinates (Angstroms)
     ATOM                X               Y               Z
      1  C         7.6147879994    2.2260352993   -0.4482051366
      2  C         6.6301451273    2.8615466025    0.2913377868
      3  C         7.3417602421    1.0076798629   -1.0522867956
      4  C         5.3750635031    2.2888704430    0.4138793145
      5  C         6.0897191873    0.4311729419   -0.9267018051
      6  C         5.0871542380    1.0733891238   -0.2035820420
      7  C         3.7277158019    0.5062328021   -0.1176442646
      8  C         2.6160175811    1.2672902548   -0.3562918277
      9  C         3.4681350652   -0.8560830901    0.1994456497
     10  N         1.3337457254    0.8325859703   -0.2958417557
     11  N         4.3705341032   -1.8029495214    0.4664544453
     12  C         2.1188588504   -1.3301256187    0.2680750091
     13  C         1.0565237064   -0.4072142226    0.0032512152
     14  S         3.5334235519   -3.1462926318    0.7654116749
     15  N         2.0282993077   -2.6229448646    0.5824210556
     16  C        -0.3602717605   -0.7723270579    0.0324452545
     17  N        -0.8502905621   -1.9201577248    0.3844440632
     18  S        -1.5413957513    0.4098762152   -0.4433174125
     19  C        -2.2044648440   -1.9128471413    0.3058310335
     20  C        -2.7786399075   -0.7481533672   -0.1219951104
     21  C        -4.1912909547   -0.4562806080   -0.2772006828
     22  S        -5.2634410470   -1.5636001031   -1.0611445251
     23  C        -4.9031249134    0.6422815326    0.1222479913
     24  C        -6.6327253238   -0.5682675440   -0.8327913978
     25  S        -4.4882166025    2.1340360019    0.9226802943
     26  C        -6.2948836708    0.5885371201   -0.1877456051
     27  C        -6.1572376225    2.6562920453    0.8251941461
     28  C        -6.9862662674    1.7784767992    0.2382107228
     29  H         8.5925960451    2.6765019891   -0.5497628717
     30  H         6.8382537720    3.8041168545    0.7790447203
     31  H         8.1068437349    0.5042671826   -1.6272474447
     32  H         4.6139440604    2.7780411667    1.0071854978
     33  H         5.8852307942   -0.5206830514   -1.3961410830
     34  H         2.7329007403    2.3083203280   -0.6300094131
     35  H        -2.7599238502   -2.8002569597    0.5714826666
     36  H        -7.5986529168   -0.8812147653   -1.1904113184
     37  H        -6.4136479766    3.6238841868    1.2250542509
     38  H        -8.0416637152    1.9544068482    0.0992320425
   Point Group: c1    Number of degrees of freedom:   108


   Energy is  -2579.861388353

              Constraints and their Current Values
                                        Value     Constraint
   Dihedral:        4   6   7   8       47.062       47.062
   Dihedral:       10  13  16  18        4.632        4.632
   Dihedral:       18  20  21  22      135.000      135.000
 Hessian Updated using BFGS Update

 96 Hessian modes will be used to form the next step
  Hessian Eigenvalues:
     0.025299    0.045000    0.045000    0.045000    0.045000    0.045000
     0.045001    0.045001    0.045001    0.045001    0.045002    0.045003
     0.045003    0.045004    0.045004    0.045005    0.045006    0.045007
     0.045012    0.045018    0.045022    0.045036    0.045050    0.050345
     0.158716    0.159968    0.159978    0.159980    0.159981    0.159990
     0.159993    0.159999    0.159999    0.160173    0.219837    0.220006
     0.225367    0.232942    0.234095    0.234691    0.235854    0.237258
     0.247595    0.249741    0.249789    0.249813    0.249983    0.249988
     0.249991    0.249992    0.249997    0.249998    0.266319    0.296113
     0.304449    0.308006    0.316520    0.324238    0.337475    0.350538
     0.356842    0.357315    0.357340    0.357499    0.358028    0.358486
     0.359862    0.361634    0.362480    0.365175    0.365853    0.370961
     0.381422    0.389497    0.393432    0.394200    0.414908    0.429827
     0.433518    0.471433    0.472764    0.474104    0.480279    0.482002
     0.482717    0.483997    0.486761    0.497244    0.509623    0.520325
     0.527130    0.543198    0.556451    0.579719    0.639557    0.653470

 Minimum Search - Taking Simple RFO Step
 Searching for Lamda that Minimizes Along All modes
 Value Taken    Lamda =  -0.00037991
 Step Taken.  Stepsize is  0.117108

                             Maximum     Tolerance    Cnvgd?
         Gradient           0.001106      0.000300      NO
         Displacement       0.037861      0.001200      NO
         Energy change     -0.000638      0.000001      NO


 New Cartesian Coordinates Obtained by Inverse Iteration

 Displacement from previous Coordinates is:  0.421463
 ----------------------------------------------------------------
             Standard Nuclear Orientation (Angstroms)
    I     Atom           X                Y                Z
 ----------------------------------------------------------------
    1      C       7.6382608245     2.2003465284    -0.4131355203
    2      C       6.6444043788     2.8523223722     0.2988939258
    3      C       7.3634044324     0.9853512950    -1.0229569974
    4      C       5.3797565176     2.2954974971     0.3959261318
    5      C       6.1006502669     0.4267445659    -0.9261662577
    6      C       5.0908352494     1.0821741070    -0.2243146392
    7      C       3.7301073924     0.5176938240    -0.1408363179
    8      C       2.6178903555     1.2771150756    -0.3780584205
    9      C       3.4711365343    -0.8476026454     0.1699079306
   10      N       1.3353267688     0.8423210698    -0.3129393535
   11      N       4.3748481183    -1.7949069993     0.4322257338
   12      C       2.1220025867    -1.3234367581     0.2382607249
   13      C       1.0591477566    -0.3980745641    -0.0176739900
   14      S       3.5380896973    -3.1394134115     0.7247888793
   15      N       2.0324308014    -2.6175847127     0.5467011933
   16      C      -0.3588445054    -0.7597710599     0.0245085008
   17      N      -0.8476597490    -1.9091603963     0.3758984345
   18      S      -1.5428867705     0.4250375353    -0.4314208907
   19      C      -2.2029545118    -1.8981333775     0.3172445849
   20      C      -2.7791615687    -0.7296124644    -0.0945590303
   21      C      -4.1917362315    -0.4370114771    -0.2557807883
   22      S      -5.2470817111    -1.5664402908    -1.0286182394
   23      C      -4.9149983980     0.6620473720     0.1196856783
   24      C      -6.6292854117    -0.5874257311    -0.8147501272
   25      S      -4.5227417136     2.1631303976     0.9129128227
   26      C      -6.3064378794     0.5839398089    -0.1874217715
   27      C      -6.1994185776     2.6563817540     0.8201914514
   28      C      -7.0155572434     1.7646297155     0.2354916804
   29      H       8.6257282689     2.6352387866    -0.4867422497
   30      H       6.8553410193     3.7928795795     0.7888313488
   31      H       8.1360998921     0.4678343293    -1.5743356431
   32      H       4.6121211127     2.7972828648     0.9699441997
   33      H       5.8945535535    -0.5242113954    -1.3955084870
   34      H       2.7313043114     2.3198736653    -0.6467917050
   35      H      -2.7574192790    -2.7810575916     0.5995525983
   36      H      -7.5911855589    -0.9260582933    -1.1602446376
   37      H      -6.4755379324     3.6171749923     1.2234003412
   38      H      -8.0750173462     1.9193273310     0.1028972491
 ----------------------------------------------------------------
 Molecular Point Group                 C1    NOp =  1
 Largest Abelian Subgroup              C1    NOp =  1
 Nuclear Repulsion Energy =  2876.8862064377 hartrees
 There are      111 alpha and      111 beta electrons
 Applying Cartesian multipole field
    Component          Value
    ---------          -----
     (2,0,0)        1.00000E-12
     (0,2,0)        2.00000E-11
     (0,0,2)       -3.00000E-11
 Nucleus-field energy     =     0.0000000568 hartrees
 Requested basis set is cc-pVTZ
 There are 348 shells and 996 basis functions
 A cutoff of  1.0D-11 yielded  28595 shell pairs
 There are    226105 function pairs (    295343 Cartesian)
 Smallest overlap matrix eigenvalue = 3.11E-05
 Guess MOs from SCF MO coefficient file
 Reading MOs from coefficient file
 Reading MOs from coefficient file
 Long-range K will be added via erf
 Coulomb attenuation parameter = 0.2 bohr**(-1)
 A restricted hybrid HF-DFT SCF calculation will be
 performed using Pulay DIIS extrapolation
 Exchange:     0.2220 Hartree-Fock + 1.0000 wB97X-D + LR-HF
 Correlation:  1.0000 wB97X-D
 Using SG-2 standard quadrature grid
 Dispersion:   Grimme D
 SCF converges when DIIS error is below 1.0E-08
 Geometry optimization detected.  Setting ReadMinima to 0
 Setting SaveMinima to 0
 using 16 threads for integral computing 
 using 16 threads for integral computing 
 K construction time:  CPU 1039.21 s  wall 67.75 s
 -------------------------------------------------------
 OpenMP BLAS3 based DFT computing Module                
 Release: version 1.0, May 2013, Q-Chem Inc. Pittsburgh 
 -------------------------------------------------------
 ---------------------------------------
  Cycle       Energy         DIIS Error
 ---------------------------------------
    1   -2579.8599459234      2.34E-04
 K construction time:  CPU 1032.09 s  wall 67.24 s
    2   -2579.8614360778      2.27E-05
 K construction time:  CPU 750.35 s  wall 48.94 s
    3   -2579.8615913648      1.17E-05
 K construction time:  CPU 704.19 s  wall 45.91 s
    4   -2579.8616087319      8.25E-06
 K construction time:  CPU 673.06 s  wall 43.85 s
    5   -2579.8616182878      3.11E-06
 K construction time:  CPU 610.46 s  wall 39.76 s
    6   -2579.8616195377      1.24E-06
 K construction time:  CPU 547.85 s  wall 35.65 s
    7   -2579.8616197363      4.09E-07
 K construction time:  CPU 504.06 s  wall 32.77 s
    8   -2579.8616197633      2.13E-07
 K construction time:  CPU 454.13 s  wall 29.48 s
    9   -2579.8616197714      6.51E-08
 K construction time:  CPU 377.71 s  wall 24.59 s
   10   -2579.8616197719      2.35E-08
 K construction time:  CPU 351.85 s  wall 22.73 s
   11   -2579.8616197737      1.12E-08
 K construction time:  CPU 293.05 s  wall 18.97 s
   12   -2579.8616197748      4.70E-09 Convergence criterion met
 ---------------------------------------
 SCF time:  CPU 9982.86 s  wall 666.47 s
 SCF   energy in the final basis set = -2579.8616197748
 Total energy in the final basis set = -2579.8616197748
 
 --------------------------------------------------------------
 
                    Orbital Energies (a.u.)
 --------------------------------------------------------------
 
 Alpha MOs
 -- Occupied --
-89.149 -89.089 -89.086 -89.076 -14.485 -14.482 -14.454 -14.443
-10.365 -10.362 -10.357 -10.356 -10.341 -10.341 -10.335 -10.332
-10.329 -10.325 -10.325 -10.322 -10.312 -10.312 -10.304 -10.298
-10.296 -10.296 -10.295 -10.295  -8.159  -8.104  -8.102  -8.091
 -6.109  -6.104  -6.103  -6.053  -6.050  -6.049  -6.047  -6.047
 -6.045  -6.041  -6.037  -6.033  -1.146  -1.086  -1.065  -1.022
 -1.010  -0.975  -0.957  -0.925  -0.919  -0.899  -0.874  -0.860
 -0.856  -0.836  -0.825  -0.801  -0.774  -0.745  -0.733  -0.712
 -0.704  -0.698  -0.687  -0.662  -0.650  -0.631  -0.625  -0.615
 -0.608  -0.598  -0.572  -0.564  -0.558  -0.549  -0.542  -0.530
 -0.529  -0.524  -0.514  -0.514  -0.509  -0.502  -0.494  -0.484
 -0.478  -0.475  -0.469  -0.456  -0.449  -0.438  -0.436  -0.434
 -0.430  -0.423  -0.420  -0.400  -0.388  -0.374  -0.368  -0.362
 -0.359  -0.352  -0.340  -0.338  -0.323  -0.305  -0.275
 -- Virtual --
 -0.049   0.005   0.026   0.042   0.053   0.058   0.069   0.079
  0.083   0.084   0.098   0.108   0.118   0.127   0.136   0.137
  0.143   0.144   0.149   0.156   0.158   0.167   0.170   0.176
  0.178   0.190   0.194   0.211   0.217   0.221   0.236   0.239
  0.241   0.243   0.260   0.267   0.274   0.283   0.288   0.292
  0.294   0.303   0.304   0.306   0.313   0.315   0.323   0.326
  0.328   0.333   0.336   0.338   0.343   0.345   0.352   0.354
  0.358   0.361   0.363   0.374   0.375   0.381   0.385   0.386
  0.388   0.389   0.393   0.398   0.403   0.405   0.407   0.410
  0.413   0.415   0.427   0.428   0.431   0.435   0.437   0.439
  0.442   0.445   0.450   0.452   0.454   0.459   0.464   0.465
  0.467   0.467   0.469   0.470   0.473   0.480   0.487   0.492
  0.493   0.496   0.499   0.504   0.505   0.507   0.512   0.518
  0.522   0.524   0.528   0.532   0.538   0.541   0.546   0.551
  0.554   0.556   0.560   0.563   0.567   0.570   0.572   0.576
  0.582   0.592   0.602   0.603   0.608   0.611   0.618   0.624
  0.629   0.631   0.639   0.642   0.649   0.652   0.657   0.662
  0.667   0.675   0.681   0.687   0.696   0.700   0.705   0.713
  0.715   0.721   0.726   0.727   0.733   0.735   0.741   0.750
  0.755   0.765   0.767   0.768   0.772   0.775   0.778   0.781
  0.787   0.796   0.799   0.801   0.808   0.809   0.817   0.824
  0.824   0.827   0.831   0.839   0.846   0.848   0.849   0.856
  0.862   0.864   0.871   0.875   0.883   0.886   0.891   0.892
  0.899   0.904   0.910   0.918   0.920   0.925   0.930   0.933
  0.942   0.944   0.953   0.957   0.958   0.960   0.965   0.971
  0.979   0.979   0.983   0.992   0.998   1.005   1.012   1.016
  1.024   1.026   1.034   1.041   1.042   1.048   1.053   1.059
  1.063   1.069   1.080   1.085   1.092   1.098   1.100   1.106
  1.111   1.114   1.117   1.123   1.127   1.136   1.149   1.156
  1.157   1.161   1.169   1.174   1.186   1.193   1.203   1.205
  1.210   1.220   1.222   1.226   1.234   1.245   1.249   1.254
  1.257   1.260   1.272   1.277   1.284   1.286   1.298   1.303
  1.315   1.318   1.328   1.335   1.345   1.347   1.353   1.362
  1.367   1.368   1.380   1.389   1.397   1.398   1.409   1.412
  1.418   1.420   1.428   1.435   1.438   1.446   1.450   1.453
  1.454   1.468   1.470   1.472   1.484   1.485   1.488   1.489
  1.492   1.497   1.515   1.517   1.525   1.541   1.545   1.549
  1.559   1.565   1.570   1.574   1.585   1.594   1.604   1.605
  1.611   1.618   1.625   1.628   1.634   1.642   1.649   1.651
  1.653   1.661   1.666   1.672   1.679   1.681   1.687   1.692
  1.699   1.703   1.709   1.715   1.728   1.734   1.741   1.752
  1.758   1.762   1.771   1.774   1.774   1.782   1.791   1.805
  1.823   1.833   1.836   1.843   1.854   1.869   1.872   1.889
  1.895   1.898   1.903   1.911   1.927   1.932   1.938   1.945
  1.957   1.960   1.965   1.974   1.981   1.984   1.990   2.002
  2.012   2.024   2.031   2.034   2.035   2.041   2.045   2.071
  2.074   2.080   2.086   2.092   2.102   2.113   2.115   2.118
  2.127   2.140   2.150   2.157   2.167   2.170   2.173   2.189
  2.193   2.202   2.203   2.208   2.213   2.231   2.238   2.245
  2.251   2.261   2.267   2.271   2.276   2.282   2.286   2.294
  2.318   2.326   2.335   2.335   2.338   2.348   2.350   2.358
  2.373   2.375   2.389   2.395   2.404   2.417   2.418   2.425
  2.429   2.436   2.444   2.455   2.456   2.469   2.473   2.479
  2.483   2.490   2.494   2.494   2.503   2.506   2.509   2.530
  2.533   2.536   2.539   2.545   2.553   2.560   2.571   2.573
  2.589   2.595   2.604   2.609   2.609   2.618   2.633   2.642
  2.650   2.657   2.660   2.670   2.672   2.681   2.692   2.704
  2.715   2.720   2.729   2.736   2.753   2.759   2.767   2.771
  2.774   2.780   2.781   2.787   2.787   2.794   2.805   2.808
  2.813   2.825   2.827   2.831   2.834   2.840   2.850   2.852
  2.861   2.873   2.887   2.898   2.903   2.907   2.912   2.919
  2.926   2.933   2.939   2.944   2.952   2.963   2.970   2.974
  2.980   2.990   2.992   2.998   3.001   3.009   3.017   3.019
  3.022   3.024   3.037   3.039   3.044   3.050   3.058   3.064
  3.069   3.074   3.076   3.080   3.082   3.087   3.097   3.098
  3.100   3.104   3.108   3.116   3.122   3.123   3.131   3.136
  3.137   3.145   3.149   3.153   3.155   3.159   3.163   3.165
  3.176   3.178   3.180   3.188   3.191   3.193   3.197   3.204
  3.208   3.210   3.221   3.222   3.226   3.230   3.237   3.240
  3.247   3.252   3.260   3.265   3.271   3.274   3.278   3.283
  3.286   3.288   3.290   3.300   3.305   3.305   3.312   3.314
  3.319   3.325   3.328   3.342   3.348   3.354   3.358   3.365
  3.369   3.376   3.383   3.385   3.392   3.395   3.399   3.404
  3.412   3.421   3.426   3.433   3.440   3.442   3.450   3.457
  3.460   3.462   3.468   3.473   3.482   3.484   3.485   3.496
  3.499   3.504   3.517   3.523   3.530   3.531   3.536   3.548
  3.558   3.565   3.569   3.571   3.574   3.586   3.589   3.591
  3.606   3.611   3.620   3.634   3.642   3.647   3.668   3.676
  3.680   3.689   3.691   3.697   3.709   3.715   3.723   3.737
  3.743   3.752   3.761   3.774   3.777   3.785   3.789   3.795
  3.802   3.808   3.816   3.826   3.837   3.841   3.855   3.855
  3.861   3.861   3.865   3.871   3.880   3.884   3.886   3.891
  3.898   3.902   3.906   3.918   3.926   3.935   3.948   3.952
  3.957   3.963   3.971   3.973   3.979   3.986   3.989   3.996
  4.004   4.008   4.020   4.028   4.034   4.042   4.048   4.060
  4.063   4.078   4.083   4.090   4.096   4.114   4.127   4.134
  4.135   4.148   4.161   4.165   4.169   4.176   4.182   4.189
  4.199   4.201   4.214   4.219   4.227   4.234   4.245   4.257
  4.267   4.271   4.276   4.282   4.288   4.304   4.320   4.327
  4.332   4.343   4.344   4.353   4.361   4.373   4.384   4.387
  4.392   4.399   4.406   4.421   4.424   4.427   4.430   4.433
  4.450   4.454   4.464   4.473   4.495   4.504   4.517   4.526
  4.529   4.543   4.556   4.562   4.577   4.583   4.590   4.600
  4.601   4.608   4.626   4.637   4.652   4.662   4.673   4.679
  4.691   4.711   4.730   4.740   4.750   4.753   4.774   4.779
  4.790   4.794   4.815   4.829   4.832   4.844   4.846   4.855
  4.864   4.866   4.881   4.888   4.899   4.906   4.927   4.943
  4.952   4.953   4.966   4.969   4.977   4.996   4.999   5.008
  5.022   5.037   5.052   5.068   5.070   5.074   5.084   5.092
  5.093   5.098   5.112   5.120   5.127   5.137   5.152   5.169
  5.183   5.206   5.211   5.225   5.244   5.249   5.266   5.271
  5.277   5.310   5.326   5.332   5.347   5.373   5.377   5.387
  5.399   5.431   5.442   5.474   5.500   5.508   5.518   5.538
  5.568   5.576   5.593   5.626   5.633   5.670   5.675   5.705
  5.728   5.754   5.764   5.771   5.797   5.823   5.832   5.871
  5.887   5.964   5.973   6.011   6.020   6.041   6.054   6.091
  6.135   6.156   6.164   6.190   6.208   6.233   6.248   6.302
  6.338   6.477   6.516   6.857   6.981   8.095   8.575   9.416
 10.050  10.697  11.122  11.135  11.584  12.008  12.302  12.657
 12.747  12.874  12.934  13.147  13.158  13.399  13.477  13.624
 13.812  13.910  13.960  14.667  15.707
 --------------------------------------------------------------
 
          Ground-State Mulliken Net Atomic Charges

     Atom                 Charge (a.u.)
  ----------------------------------------
      1 C                    -0.123665
      2 C                    -0.109979
      3 C                    -0.109696
      4 C                    -0.153055
      5 C                    -0.123380
      6 C                     0.122061
      7 C                     0.014978
      8 C                    -0.110396
      9 C                     0.035343
     10 N                    -0.173302
     11 N                    -0.281822
     12 C                    -0.014483
     13 C                     0.108695
     14 S                     0.413132
     15 N                    -0.222666
     16 C                    -0.009473
     17 N                    -0.138349
     18 S                     0.136526
     19 C                    -0.137073
     20 C                    -0.029721
     21 C                    -0.002543
     22 S                     0.140184
     23 C                    -0.059710
     24 C                    -0.224716
     25 S                     0.062940
     26 C                     0.045392
     27 C                    -0.143389
     28 C                    -0.174720
     29 H                     0.117412
     30 H                     0.116774
     31 H                     0.116008
     32 H                     0.129316
     33 H                     0.116182
     34 H                     0.136068
     35 H                     0.140578
     36 H                     0.130419
     37 H                     0.132577
     38 H                     0.127556
  ----------------------------------------
  Sum of atomic charges =     0.000000

 -----------------------------------------------------------------
                    Cartesian Multipole Moments
 -----------------------------------------------------------------
    Charge (ESU x 10^10)
                 0.0000
    Dipole Moment (Debye)
         X      -0.6290      Y       1.1577      Z      -0.2899
       Tot       1.3491
    Quadrupole Moments (Debye-Ang)
        XX    -143.8260     XY      -0.8415     YY    -175.4940
        XZ      -0.9488     YZ       5.4092     ZZ    -187.4706
    Octopole Moments (Debye-Ang^2)
       XXX    -136.4728    XXY      58.6179    XYY       8.1853
       YYY       2.3271    XXZ     -42.2123    XYZ      -6.9671
       YYZ      24.4405    XZZ       8.0849    YZZ     -12.9705
       ZZZ      11.0035
    Hexadecapole Moments (Debye-Ang^3)
      XXXX  -20289.1958   XXXY      47.2098   XXYY   -3994.6476
      XYYY    -120.3635   YYYY   -3294.6995   XXXZ     -57.4576
      XXYZ     198.9861   XYYZ      21.6638   YYYZ      40.0992
      XXZZ   -4114.0737   XYZZ     -39.7725   YYZZ    -675.2015
      XZZZ      64.9050   YZZZ     -17.6186   ZZZZ    -622.2668
 -----------------------------------------------------------------
 Calculating analytic gradient of the SCF energy
 K construction time:  CPU 2548.03 s  wall 160.95 s
 Gradient of SCF Energy
            1           2           3           4           5           6
    1  -0.0002058   0.0001298   0.0003583   0.0000435  -0.0003485  -0.0000804
    2  -0.0000266   0.0001422   0.0000293  -0.0005702   0.0000729   0.0004027
    3  -0.0000050  -0.0000295  -0.0000889   0.0008337  -0.0005619  -0.0011584
            7           8           9          10          11          12
    1  -0.0000380   0.0000992   0.0000008  -0.0000046   0.0003640  -0.0000648
    2   0.0004527  -0.0003881  -0.0000155   0.0001405   0.0000747  -0.0003525
    3   0.0016515  -0.0014249   0.0001553   0.0003406  -0.0000278  -0.0001412
           13          14          15          16          17          18
    1   0.0002202  -0.0002106  -0.0001617  -0.0000530  -0.0001610   0.0000883
    2  -0.0000154   0.0004240  -0.0001438   0.0003159   0.0000048  -0.0006060
    3  -0.0003888  -0.0001547   0.0002033   0.0007254  -0.0001869  -0.0012450
           19          20          21          22          23          24
    1  -0.0001235   0.0008770  -0.0010356   0.0004493  -0.0002295   0.0003250
    2   0.0005328  -0.0008945   0.0000939   0.0008457  -0.0002113   0.0002434
    3   0.0008870   0.0000036   0.0003273  -0.0010339   0.0007861  -0.0001064
           25          26          27          28          29          30
    1   0.0000398  -0.0002445   0.0001427   0.0000305   0.0000393   0.0000434
    2   0.0001670  -0.0005135   0.0000176   0.0004124   0.0000103  -0.0001209
    3  -0.0001747   0.0009210  -0.0001692  -0.0004764  -0.0000219  -0.0000212
           31          32          33          34          35          36
    1  -0.0001109   0.0000897   0.0000349  -0.0000813  -0.0000726  -0.0000795
    2  -0.0000220  -0.0000708   0.0000049   0.0000537  -0.0000636  -0.0002471
    3   0.0000958   0.0001248   0.0002681   0.0001457  -0.0002360   0.0000618
           37          38
    1  -0.0000203  -0.0000495
    2  -0.0000205  -0.0001590
    3   0.0000428   0.0000790
 Max gradient component =       1.652E-03
 RMS gradient           =       4.257E-04
 Gradient time:  CPU 2981.17 s  wall 189.99 s
 Geometry Optimization Parameters
   NAtoms,    NIC,     NZ,  NCons,   NDum,   NFix, NCnnct, MaxDiis
       38     289       0       3       0       0       0       0

 Cartesian Hessian Update
 Hessian Updated using BFGS Update


** CONSTRAINED OPTIMIZATION IN DELOCALIZED INTERNAL COORDINATES **
   Searching for a Minimum

   Optimization Cycle:   3

                       Coordinates (Angstroms)
     ATOM                X               Y               Z
      1  C         7.6382608245    2.2003465284   -0.4131355203
      2  C         6.6444043788    2.8523223722    0.2988939258
      3  C         7.3634044324    0.9853512950   -1.0229569974
      4  C         5.3797565176    2.2954974971    0.3959261318
      5  C         6.1006502669    0.4267445659   -0.9261662577
      6  C         5.0908352494    1.0821741070   -0.2243146392
      7  C         3.7301073924    0.5176938240   -0.1408363179
      8  C         2.6178903555    1.2771150756   -0.3780584205
      9  C         3.4711365343   -0.8476026454    0.1699079306
     10  N         1.3353267688    0.8423210698   -0.3129393535
     11  N         4.3748481183   -1.7949069993    0.4322257338
     12  C         2.1220025867   -1.3234367581    0.2382607249
     13  C         1.0591477566   -0.3980745641   -0.0176739900
     14  S         3.5380896973   -3.1394134115    0.7247888793
     15  N         2.0324308014   -2.6175847127    0.5467011933
     16  C        -0.3588445054   -0.7597710599    0.0245085008
     17  N        -0.8476597490   -1.9091603963    0.3758984345
     18  S        -1.5428867705    0.4250375353   -0.4314208907
     19  C        -2.2029545118   -1.8981333775    0.3172445849
     20  C        -2.7791615687   -0.7296124644   -0.0945590303
     21  C        -4.1917362315   -0.4370114771   -0.2557807883
     22  S        -5.2470817111   -1.5664402908   -1.0286182394
     23  C        -4.9149983980    0.6620473720    0.1196856783
     24  C        -6.6292854117   -0.5874257311   -0.8147501272
     25  S        -4.5227417136    2.1631303976    0.9129128227
     26  C        -6.3064378794    0.5839398089   -0.1874217715
     27  C        -6.1994185776    2.6563817540    0.8201914514
     28  C        -7.0155572434    1.7646297155    0.2354916804
     29  H         8.6257282689    2.6352387866   -0.4867422497
     30  H         6.8553410193    3.7928795795    0.7888313488
     31  H         8.1360998921    0.4678343293   -1.5743356431
     32  H         4.6121211127    2.7972828648    0.9699441997
     33  H         5.8945535535   -0.5242113954   -1.3955084870
     34  H         2.7313043114    2.3198736653   -0.6467917050
     35  H        -2.7574192790   -2.7810575916    0.5995525983
     36  H        -7.5911855589   -0.9260582933   -1.1602446376
     37  H        -6.4755379324    3.6171749923    1.2234003412
     38  H        -8.0750173462    1.9193273310    0.1028972491
   Point Group: c1    Number of degrees of freedom:   108


   Energy is  -2579.861619775

              Constraints and their Current Values
                                        Value     Constraint
   Dihedral:        4   6   7   8       47.062       47.062
   Dihedral:       10  13  16  18        4.632        4.632
   Dihedral:       18  20  21  22      135.000      135.000
 Hessian Updated using BFGS Update

 97 Hessian modes will be used to form the next step
  Hessian Eigenvalues:
     0.017524    0.045000    0.045000    0.045001    0.045001    0.045001
     0.045001    0.045002    0.045002    0.045002    0.045003    0.045003
     0.045004    0.045005    0.045006    0.045007    0.045008    0.045012
[...]
     32  H         4.6130512638    2.7885523051    0.9792573314
     33  H         5.8904825938   -0.5115375312   -1.4194241220
     34  H         2.7285987985    2.3226023275   -0.6166913986
     35  H        -2.7504802307   -2.7904533064    0.6196173514
     36  H        -7.5766768842   -0.9290076208   -1.1758546308
     37  H        -6.4890985424    3.6321638494    1.1842458902
     38  H        -8.0716863308    1.9335791059    0.0431654130
   Point Group: c1    Number of degrees of freedom:   108


   Energy is  -2579.861706730

              Constraints and their Current Values
                                        Value     Constraint
   Dihedral:        4   6   7   8       47.062       47.062
   Dihedral:       10  13  16  18        4.632        4.632
   Dihedral:       18  20  21  22      135.000      135.000
 Hessian Updated using BFGS Update

103 Hessian modes will be used to form the next step
  Hessian Eigenvalues:
     0.009345    0.016731    0.039393    0.045000    0.045000    0.045000
     0.045000    0.045000    0.045000    0.045000    0.045001    0.045001
     0.045002    0.045002    0.045002    0.045004    0.045004    0.045005
     0.045006    0.045006    0.045007    0.045010    0.045013    0.045021
     0.045029    0.045042    0.045057    0.045373    0.046456    0.050817
     0.157429    0.159731    0.159964    0.159979    0.159991    0.159993
     0.160014    0.160035    0.160119    0.160524    0.218647    0.220018
     0.224913    0.225577    0.233196    0.234761    0.235502    0.237413
     0.247611    0.248297    0.249657    0.249863    0.249940    0.249992
     0.249996    0.250020    0.250279    0.257449    0.266439    0.296166
     0.304513    0.308060    0.316560    0.324129    0.337795    0.346582
     0.350851    0.356846    0.357319    0.357347    0.357562    0.358205
     0.358492    0.359920    0.361653    0.362481    0.365315    0.367092
     0.381657    0.389667    0.390104    0.393563    0.410409    0.429755
     0.433278    0.441751    0.471663    0.474059    0.474417    0.480294
     0.482252    0.483368    0.484053    0.487346    0.497625    0.509967
     0.524165    0.527449    0.543282    0.556618    0.640103    0.652871
     0.656604

 Minimum Search - Taking Simple RFO Step
 Searching for Lamda that Minimizes Along All modes
 Value Taken    Lamda =   0.00000000
 Step Taken.  Stepsize is  0.003097

                             Maximum     Tolerance    Cnvgd?
         Gradient           0.000039      0.000300     YES
         Displacement       0.001354      0.001200      NO
         Energy change     -0.000001      0.000001     YES

 Final energy is   -2579.86170672992     


 ******************************
 **  OPTIMIZATION CONVERGED  **
 ******************************

                       Coordinates (Angstroms)
     ATOM                X               Y               Z
      1  C         7.6364439252    2.2034505260   -0.4142644652
      2  C         6.6438419233    2.8491922462    0.3053223872
      3  C         7.3595806244    0.9940254660   -1.0341718854
      4  C         5.3800170218    2.2908775866    0.4007190821
      5  C         6.0976866940    0.4335139606   -0.9384639021
      6  C         5.0888503139    1.0830493152   -0.2298212891
      7  C         3.7301723786    0.5150496254   -0.1380711290
      8  C         2.6159792564    1.2775904335   -0.3565332502
      9  C         3.4733538910   -0.8546905413    0.1544182889
     10  N         1.3336943353    0.8436797561   -0.2845000468
     11  N         4.3776913903   -1.8073492016    0.3935257593
     12  C         2.1242347618   -1.3302135858    0.2265725110
     13  C         1.0592422321   -0.4007206838   -0.0048368338
     14  S         3.5426295959   -3.1565047782    0.6696288073
     15  N         2.0363225170   -2.6295788459    0.5123108867
     16  C        -0.3582651610   -0.7611667423    0.0497457396
     17  N        -0.8437941739   -1.9152936137    0.3895884876
     18  S        -1.5468290468    0.4322020940   -0.3730030520
     19  C        -2.1993771319   -1.9032214742    0.3443035876
     20  C        -2.7804433092   -0.7267978915   -0.0394952197
     21  C        -4.1918134776   -0.4435821438   -0.2122559972
     22  S        -5.2389152209   -1.5812395051   -0.9867376744
     23  C        -4.9167618447    0.6657895332    0.1279767802
     24  C        -6.6194715206   -0.5907029202   -0.8177810504
     25  S        -4.5352213952    2.1708206565    0.9188790882
     26  C        -6.3020549063    0.5901915538   -0.2056037348
     27  C        -6.2086450827    2.6676794885    0.7930362321
     28  C        -7.0159423164    1.7745889226    0.1981955705
     29  H         8.6235881529    2.6390765858   -0.4867006954
     30  H         6.8546553186    3.7863644470    0.8020838663
     31  H         8.1308750375    0.4824638994   -1.5933743406
     32  H         4.6130512638    2.7885523051    0.9792573314
     33  H         5.8904825938   -0.5115375312   -1.4194241220
     34  H         2.7285987985    2.3226023275   -0.6166913986
     35  H        -2.7504802307   -2.7904533064    0.6196173514
     36  H        -7.5766768842   -0.9290076208   -1.1758546308
     37  H        -6.4890985424    3.6321638494    1.1842458902
     38  H        -8.0716863308    1.9335791059    0.0431654130

Z-matrix Print:
$molecule
0 1
S 
C  1 1.725199
C  2 1.367082 1 109.175184
H  3 1.080135 2 124.162814 1 -179.370436 0
N  3 1.356393 2 116.220027 1 -0.359888 0
C  5 1.297398 3 110.937354 2 -0.196024 0
C  2 1.449836 1 122.807405 3 177.803776 0
C  7 1.368216 2 130.131840 1 43.388443 0
C  8 1.426894 7 114.412928 2 -179.736770 0
C  9 1.367489 8 112.071049 7 0.582175 0
H  10 1.076526 9 128.804613 8 -179.748138 0
C  9 1.440655 8 111.838993 7 -178.942875 0
H  12 1.078846 9 124.457756 8 -179.843360 0
C  12 1.342824 9 111.902851 8 0.036400 0
H  14 1.077928 12 126.829809 9 -179.850263 0
C  6 1.463635 5 126.247876 3 -179.409553 0
N  16 1.304633 6 116.527630 5 175.457480 0
C  17 1.355626 16 121.042938 6 -179.901447 0
H  18 1.082781 17 114.838746 16 -178.705881 0
C  18 1.367706 17 125.706058 16 0.982909 0
C  20 1.423971 18 114.972566 17 -1.651202 0
N  21 1.335124 20 126.940505 18 -179.358848 0
C  21 1.432289 20 119.972665 18 1.187736 0
N  23 1.333314 21 113.356532 20 179.787627 0
C  20 1.475482 18 121.708249 17 179.500743 0
C  25 1.393273 20 119.868824 18 -47.061891 0
H  26 1.081953 25 119.512037 20 -1.857109 0
C  26 1.384944 25 120.597658 20 178.886232 0
H  28 1.081437 26 119.709503 25 179.882780 0
C  28 1.385657 26 120.105740 25 0.427910 0
H  30 1.081421 28 120.062903 26 179.881273 0
C  30 1.386956 28 119.701479 26 0.218551 0
H  32 1.081341 30 120.084730 28 179.710065 0
C  32 1.384092 30 120.279605 28 -0.129299 0
H  34 1.080453 32 119.886242 30 179.669876 0
S  24 1.603546 23 106.219725 21 -0.126717 0
S  10 1.707526 9 110.951166 8 0.340650 0
S  8 1.742475 7 134.201155 2 1.659503 0
$end

 
 --------------------------------------------------------------
 
                    Orbital Energies (a.u.)
 --------------------------------------------------------------
 
 Alpha MOs
 -- Occupied --
-89.149 -89.089 -89.086 -89.076 -14.485 -14.482 -14.454 -14.443
-10.365 -10.362 -10.357 -10.356 -10.341 -10.341 -10.335 -10.332
-10.329 -10.326 -10.325 -10.322 -10.312 -10.312 -10.304 -10.297
-10.296 -10.296 -10.295 -10.294  -8.159  -8.104  -8.102  -8.091
 -6.109  -6.104  -6.103  -6.053  -6.050  -6.050  -6.047  -6.047
 -6.045  -6.041  -6.037  -6.033  -1.146  -1.086  -1.065  -1.022
 -1.010  -0.975  -0.957  -0.925  -0.919  -0.899  -0.874  -0.860
 -0.855  -0.836  -0.825  -0.801  -0.774  -0.745  -0.733  -0.712
 -0.704  -0.698  -0.687  -0.662  -0.650  -0.631  -0.625  -0.614
 -0.608  -0.598  -0.572  -0.564  -0.558  -0.549  -0.542  -0.530
 -0.529  -0.524  -0.514  -0.514  -0.510  -0.502  -0.494  -0.484
 -0.478  -0.476  -0.469  -0.455  -0.449  -0.438  -0.436  -0.434
 -0.430  -0.423  -0.420  -0.400  -0.388  -0.374  -0.368  -0.362
 -0.359  -0.352  -0.339  -0.338  -0.323  -0.305  -0.274
 -- Virtual --
 -0.050   0.005   0.026   0.042   0.053   0.057   0.069   0.079
  0.082   0.083   0.098   0.108   0.118   0.127   0.136   0.138
  0.143   0.143   0.149   0.156   0.158   0.167   0.170   0.177
  0.178   0.190   0.194   0.211   0.217   0.221   0.236   0.239
  0.241   0.243   0.260   0.267   0.274   0.282   0.288   0.291
  0.295   0.303   0.304   0.307   0.312   0.315   0.324   0.326
  0.328   0.333   0.336   0.338   0.344   0.346   0.352   0.354
  0.358   0.361   0.363   0.375   0.376   0.381   0.385   0.386
  0.388   0.389   0.393   0.397   0.403   0.405   0.407   0.410
  0.413   0.415   0.427   0.428   0.431   0.435   0.437   0.438
  0.442   0.444   0.449   0.453   0.454   0.459   0.465   0.465
  0.467   0.467   0.469   0.470   0.473   0.480   0.488   0.492
  0.493   0.496   0.499   0.503   0.505   0.507   0.512   0.518
  0.522   0.524   0.529   0.533   0.538   0.541   0.546   0.551
  0.555   0.556   0.560   0.563   0.567   0.569   0.572   0.576
  0.582   0.592   0.602   0.603   0.607   0.611   0.619   0.624
  0.628   0.631   0.639   0.642   0.649   0.653   0.657   0.663
  0.667   0.675   0.682   0.688   0.697   0.700   0.705   0.714
  0.716   0.722   0.726   0.727   0.734   0.736   0.741   0.750
  0.755   0.765   0.767   0.768   0.772   0.775   0.778   0.781
  0.787   0.797   0.799   0.801   0.808   0.810   0.817   0.824
  0.824   0.827   0.831   0.839   0.847   0.848   0.849   0.856
  0.863   0.864   0.871   0.875   0.884   0.886   0.890   0.892
  0.899   0.904   0.909   0.918   0.920   0.925   0.930   0.932
  0.943   0.944   0.953   0.958   0.959   0.960   0.965   0.971
  0.978   0.979   0.983   0.993   1.000   1.005   1.012   1.016
  1.023   1.025   1.034   1.040   1.042   1.048   1.054   1.058
  1.063   1.069   1.079   1.085   1.092   1.098   1.101   1.107
  1.111   1.115   1.117   1.123   1.127   1.137   1.149   1.157
  1.158   1.162   1.169   1.173   1.186   1.193   1.202   1.204
  1.210   1.222   1.222   1.227   1.235   1.245   1.249   1.254
  1.256   1.262   1.271   1.277   1.283   1.286   1.296   1.303
  1.317   1.318   1.329   1.336   1.345   1.347   1.354   1.362
  1.367   1.368   1.379   1.389   1.397   1.398   1.409   1.413
  1.418   1.420   1.428   1.434   1.437   1.446   1.451   1.453
  1.454   1.467   1.470   1.472   1.484   1.486   1.488   1.489
  1.492   1.497   1.514   1.517   1.525   1.541   1.545   1.550
  1.558   1.565   1.570   1.574   1.584   1.594   1.603   1.605
  1.611   1.619   1.625   1.629   1.633   1.642   1.649   1.651
  1.653   1.661   1.666   1.672   1.679   1.683   1.687   1.693
  1.700   1.704   1.708   1.714   1.729   1.734   1.741   1.752
  1.759   1.762   1.771   1.773   1.774   1.782   1.792   1.806
  1.822   1.832   1.837   1.842   1.855   1.868   1.873   1.889
  1.893   1.897   1.903   1.912   1.927   1.932   1.938   1.945
  1.957   1.960   1.965   1.974   1.980   1.984   1.990   2.002
  2.012   2.024   2.031   2.034   2.034   2.041   2.044   2.071
  2.076   2.079   2.085   2.092   2.102   2.110   2.113   2.117
  2.127   2.140   2.151   2.158   2.168   2.170   2.174   2.188
  2.192   2.202   2.204   2.208   2.213   2.232   2.239   2.245
  2.251   2.262   2.266   2.271   2.277   2.281   2.288   2.297
  2.318   2.326   2.335   2.335   2.338   2.347   2.350   2.358
  2.373   2.377   2.389   2.395   2.404   2.418   2.418   2.424
  2.428   2.437   2.442   2.455   2.458   2.469   2.472   2.479
  2.482   2.490   2.494   2.495   2.502   2.505   2.509   2.530
  2.533   2.535   2.540   2.543   2.553   2.559   2.571   2.573
  2.589   2.595   2.603   2.608   2.609   2.617   2.632   2.642
  2.649   2.658   2.660   2.668   2.672   2.680   2.696   2.705
  2.715   2.720   2.729   2.736   2.753   2.759   2.767   2.771
  2.774   2.780   2.781   2.786   2.787   2.793   2.805   2.809
  2.814   2.824   2.827   2.832   2.835   2.840   2.850   2.852
  2.860   2.873   2.886   2.898   2.903   2.907   2.912   2.920
  2.926   2.933   2.939   2.943   2.951   2.963   2.969   2.976
  2.980   2.989   2.992   2.998   3.001   3.009   3.016   3.019
  3.022   3.023   3.037   3.041   3.044   3.049   3.057   3.064
  3.068   3.073   3.076   3.080   3.081   3.087   3.096   3.098
  3.100   3.104   3.108   3.116   3.122   3.124   3.129   3.136
  3.137   3.145   3.149   3.153   3.155   3.159   3.163   3.165
  3.176   3.178   3.180   3.188   3.190   3.193   3.196   3.205
  3.209   3.211   3.221   3.221   3.227   3.230   3.236   3.240
  3.245   3.252   3.260   3.265   3.272   3.275   3.276   3.283
  3.286   3.287   3.292   3.301   3.304   3.305   3.313   3.314
  3.319   3.326   3.327   3.342   3.348   3.354   3.358   3.365
  3.368   3.375   3.384   3.385   3.392   3.395   3.399   3.406
  3.412   3.421   3.426   3.433   3.441   3.441   3.450   3.456
  3.460   3.462   3.468   3.473   3.481   3.483   3.485   3.496
  3.499   3.504   3.517   3.523   3.530   3.531   3.536   3.548
  3.559   3.565   3.569   3.572   3.574   3.586   3.589   3.592
  3.606   3.611   3.619   3.633   3.642   3.647   3.666   3.676
  3.681   3.689   3.691   3.697   3.710   3.715   3.722   3.737
  3.743   3.752   3.761   3.774   3.778   3.785   3.791   3.795
  3.802   3.808   3.816   3.825   3.838   3.840   3.854   3.856
  3.861   3.862   3.865   3.871   3.879   3.883   3.885   3.891
  3.898   3.902   3.905   3.919   3.928   3.935   3.948   3.952
  3.957   3.963   3.971   3.973   3.977   3.986   3.987   3.994
  4.003   4.009   4.021   4.028   4.034   4.042   4.049   4.060
  4.062   4.079   4.082   4.090   4.096   4.116   4.128   4.133
  4.135   4.150   4.162   4.164   4.169   4.176   4.183   4.189
  4.198   4.202   4.214   4.221   4.228   4.234   4.246   4.257
  4.268   4.271   4.276   4.283   4.288   4.305   4.320   4.327
  4.332   4.342   4.344   4.352   4.362   4.373   4.385   4.387
  4.393   4.399   4.407   4.421   4.422   4.428   4.429   4.434
  4.450   4.454   4.463   4.472   4.495   4.504   4.517   4.527
  4.529   4.542   4.556   4.562   4.577   4.581   4.589   4.600
  4.601   4.608   4.626   4.636   4.649   4.661   4.672   4.680
  4.689   4.712   4.729   4.740   4.749   4.753   4.773   4.779
  4.791   4.793   4.815   4.828   4.833   4.844   4.846   4.855
  4.863   4.866   4.881   4.887   4.900   4.906   4.927   4.943
  4.952   4.953   4.966   4.970   4.977   4.996   4.999   5.008
  5.022   5.039   5.052   5.069   5.071   5.074   5.084   5.092
  5.094   5.098   5.112   5.120   5.127   5.137   5.153   5.168
  5.183   5.207   5.210   5.224   5.244   5.250   5.266   5.271
  5.277   5.309   5.326   5.331   5.347   5.373   5.377   5.387
  5.400   5.431   5.443   5.476   5.501   5.508   5.518   5.538
  5.569   5.577   5.594   5.626   5.633   5.669   5.675   5.706
  5.728   5.755   5.765   5.770   5.797   5.823   5.832   5.871
  5.887   5.964   5.972   6.011   6.021   6.041   6.053   6.090
  6.135   6.156   6.163   6.191   6.209   6.233   6.248   6.302
  6.339   6.478   6.517   6.856   6.981   8.099   8.587   9.419
 10.067  10.700  11.123  11.137  11.590  12.010  12.305  12.658
 12.744  12.877  12.936  13.153  13.162  13.400  13.480  13.615
 13.810  13.912  13.961  14.668  15.706
 --------------------------------------------------------------
 
          Ground-State Mulliken Net Atomic Charges

     Atom                 Charge (a.u.)
  ----------------------------------------
      1 C                    -0.123732
      2 C                    -0.110161
      3 C                    -0.109938
      4 C                    -0.152624
      5 C                    -0.122815
      6 C                     0.121233
      7 C                     0.015357
      8 C                    -0.110898
      9 C                     0.035511
     10 N                    -0.173461
     11 N                    -0.282070
     12 C                    -0.014093
     13 C                     0.108766
     14 S                     0.413213
     15 N                    -0.222825
     16 C                    -0.008750
     17 N                    -0.138274
     18 S                     0.135903
     19 C                    -0.139721
     20 C                    -0.026871
     21 C                     0.001031
     22 S                     0.139135
     23 C                    -0.062241
     24 C                    -0.223633
     25 S                     0.063008
     26 C                     0.044795
     27 C                    -0.143783
     28 C                    -0.174021
     29 H                     0.117440
     30 H                     0.116680
     31 H                     0.115946
     32 H                     0.129281
     33 H                     0.116061
     34 H                     0.136211
     35 H                     0.139951
     36 H                     0.130366
     37 H                     0.132612
     38 H                     0.127411
  ----------------------------------------
  Sum of atomic charges =     0.000000

 -----------------------------------------------------------------
                    Cartesian Multipole Moments
 -----------------------------------------------------------------
    Charge (ESU x 10^10)
                 0.0000
    Dipole Moment (Debye)
         X      -0.6577      Y       1.1648      Z      -0.3374
       Tot       1.3795
    Quadrupole Moments (Debye-Ang)
        XX    -143.8300     XY      -0.9090     YY    -175.4417
        XZ      -0.6952     YZ       5.3664     ZZ    -187.4441
    Octopole Moments (Debye-Ang^2)
       XXX    -137.0644    XXY      60.1786    XYY       7.3191
       YYY       3.0365    XXZ     -45.5942    XYZ      -5.9887
       YYZ      23.2837    XZZ       8.5387    YZZ     -12.7539
       ZZZ       8.2610
    Hexadecapole Moments (Debye-Ang^3)
      XXXX  -20302.3982   XXXY      49.7613   XXYY   -3993.3080
      XYYY    -118.2870   YYYY   -3316.4491   XXXZ     -14.4908
      XXYZ     194.4071   XYYZ      30.5808   YYYZ      36.7688
      XXZZ   -4108.2888   XYZZ     -35.0135   YYZZ    -677.7099
      XZZZ      87.1642   YZZZ     -21.3580   ZZZZ    -604.2841
 -----------------------------------------------------------------
Archival summary:
1\1\mn74\OPT\ProcedureUnspecified\BasisUnspecified\442010\afmv_a\WedJun722:51:352017WedJun722:51:352017\0\\#,OPT,ProcedureUnspecified,BasisUnspecified,\\0,1\S\C,1,1.7252\C,2,1.36708,1,109.175\H,3,1.08014,2,124.163,1,-179.37,0\N,3,1.35639,2,116.22,1,-0.359888,0\C,5,1.2974,3,110.937,2,-0.196024,0\C,2,1.44984,1,122.807,3,177.804,0\C,7,1.36822,2,130.132,1,43.3884,0\C,8,1.42689,7,114.413,2,-179.737,0\C,9,1.36749,8,112.071,7,0.582175,0\H,10,1.07653,9,128.805,8,-179.748,0\C,9,1.44065,8,111.839,7,-178.943,0\H,12,1.07885,9,124.458,8,-179.843,0\C,12,1.34282,9,111.903,8,0.0363999,0\H,14,1.07793,12,126.83,9,-179.85,0\C,6,1.46364,5,126.248,3,-179.41,0\N,16,1.30463,6,116.528,5,175.457,0\C,17,1.35563,16,121.043,6,-179.901,0\H,18,1.08278,17,114.839,16,-178.706,0\C,18,1.36771,17,125.706,16,0.982909,0\C,20,1.42397,18,114.973,17,-1.6512,0\N,21,1.33512,20,126.941,18,-179.359,0\C,21,1.43229,20,119.973,18,1.18774,0\N,23,1.33331,21,113.357,20,179.788,0\C,20,1.47548,18,121.708,17,179.501,0\C,25,1.39327,20,119.869,18,-47.0619,0\H,26,1.08195,25,119.512,20,-1.85711,0\C,26,1.38494,25,120.598,20,178.886,0\H,28,1.08144,26,119.71,25,179.883,0\C,28,1.38566,26,120.106,25,0.42791,0\H,30,1.08142,28,120.063,26,179.881,0\C,30,1.38696,28,119.701,26,0.218551,0\H,32,1.08134,30,120.085,28,179.71,0\C,32,1.38409,30,120.28,28,-0.129299,0\H,34,1.08045,32,119.886,30,179.67,0\S,24,1.60355,23,106.22,21,-0.126717,0\S,10,1.70753,9,110.951,8,0.34065,0\S,8,1.74247,7,134.201,2,1.6595,0\\\@

 Total job time:  6594.07s(wall), 99643.63s(cpu) 
 Wed Jun  7 22:51:35 2017

        *************************************************************
        *                                                           *
        *  Thank you very much for using Q-Chem.  Have a nice day.  *
        *                                                           *
        *************************************************************


