
Running Job 1 of 1 C306_3/C306_15.qcin
qchem C306_3/C306_15.qcin_59695.0 /tmpu/cab_g/afmv_a/scratch_qchem/qchem59695/ 1
/tmpu/appuserlic/qchem4.4/serial-multicore/exe/qcprog.exe_s C306_3/C306_15.qcin_59695.0 /tmpu/cab_g/afmv_a/scratch_qchem/qchem59695/
Check license passed

                  Welcome to Q-Chem
     A Quantum Leap Into The Future Of Chemistry


 Q-Chem 4.4, Q-Chem, Inc., Pleasanton, CA (2016)

 Y. Shao,  Z. Gan,  E. Epifanovsky,  A. T. B. Gilbert,  M. Wormit,  
 J. Kussmann,  A. W. Lange,  A. Behn,  J. Deng,  X. Feng,  D. Ghosh,  
 M. Goldey,  P. R. Horn,  L. D. Jacobson,  I. Kaliman,  F. Rob,  
 R. Z. Khaliullin,  T. Kus,  A. Landau,  J. Liu,  E. I. Proynov,  Y. M. Rhee,  
 R. M. Richard,  M. A. Rohrdanz,  R. P. Steele,  E. J. Sundstrom,  
 H. L. Woodcock III,  P. M. Zimmerman,  D. Zuev,  B. Albrecht,  E. Alguire,  
 B. Austin,  S. A. Baeppler,  G. J. O. Beran,  Y. A. Bernard,  E. Berquist,  
 K. Brandhorst,  K. B. Bravaya,  S. T. Brown,  D. Casanova,  C.-M. Chang,  
 Y. Chen,  S. H. Chien,  K. D. Closser,  M. P. Coons,  D. L. Crittenden,  
 S. Dasgupta,  M. Diedenhofen,  R. A. DiStasio Jr.,  H. Do,  A. D. Dutoi,  
 R. G. Edgar,  P.-T. Fang,  S. Fatehi,  Q. Feng,  L. Fusti-Molnar,  
 A. Ghysels,  A. Golubeva-Zadorozhnaya,  J. Gomes,  A. Gunina,  
 M. W. D. Hanson-Heine,  P. H. P. Harbach,  A. W. Hauser,  J. E. Herr,  
 E. G. Hohenstein,  Z. C. Holden,  K. Hui,  T.-C. Jagau,  H. Ji,  B. Kaduk,  
 K. Khistyaev,  Jaehoon Kim,  Jihan Kim,  R. A. King,  P. Klunzinger,  
 K. Koh,  D. Kosenkov,  T. Kowalczyk,  C. M. Krauter,  A. Kunitsa,  
 K. U. Lao,  A. Laurent,  K. V. Lawler,  J. Lee,  D. Lefrancois,  S. Lehtola,  
 S. V. Levchenko,  C. Y. Lin,  Y.-S. Lin,  F. Liu,  E. Livshits,  
 R. C. Lochan,  A. Luenser,  P. Manohar,  S. F. Manzer,  S.-P. Mao,  Y. Mao,  
 N. Mardirossian,  A. V. Marenich,  L. A. Martinez-Martinez,  S. A. Maurer,  
 N. J. Mayhall,  J.-M. Mewes,  A. F. Morrison,  K. Nanda,  T. S. Nguyen-Beck,  
 C. M. Oana,  R. Olivares-Amaya,  D. P. O'Neill,  J. A. Parkhill,  
 T. M. Perrine,  R. Peverati,  P. A. Pieniazek,  F. Plasser,  A. Prociuk,  
 D. R. Rehn,  E. Rosta,  N. J. Russ,  N. Sergueev,  S. M. Sharada,  
 S. Sharma,  D. W. Small,  A. Sodt,  T. Stauch,  T. Stein,  D. Stuck,  
 Y.-C. Su,  A. J. W. Thom,  T. Tsuchimochi,  L. Vogt,  O. Vydrov,  T. Wang,  
 M. A. Watson,  J. Wenzel,  A. White,  C. F. Williams,  V. Vanovschi,  
 K. Yao,  S. Yeganeh,  S. R. Yost,  Z.-Q. You,  I. Y. Zhang,  X. Zhang,  
 Y. Zhao,  B. R. Brooks,  G. K. L. Chan,  D. M. Chipman,  C. J. Cramer,  
 W. A. Goddard III,  M. S. Gordon,  W. J. Hehre,  A. Klamt,  
 H. F. Schaefer III,  M. W. Schmidt,  C. D. Sherrill,  D. G. Truhlar,  
 A. Warshel,  X. Xu,  A. Aspuru-Guzik,  R. Baer,  A. T. Bell,  N. A. Besley,  
 J.-D. Chai,  A. Dreuw,  B. D. Dunietz,  T. R. Furlani,  S. R. Gwaltney,  
 C.-P. Hsu,  Y. Jung,  J. Kong,  D. S. Lambrecht,  W. Liang,  C. Ochsenfeld,  
 V. A. Rassolov,  L. V. Slipchenko,  J. E. Subotnik,  T. Van Voorhis,  
 J. M. Herbert,  A. I. Krylov,  P. M. W. Gill,  M. Head-Gordon

 Contributors to earlier versions of Q-Chem not listed above: 
 R. D. Adamson,  J. Baker,  E. F. C. Byrd,  A. K. Chakraborty,  C.-L. Cheng,  
 H. Dachsel,  R. J. Doerksen,  G. Hawkins,  A. Heyden,  S. Hirata,  
 G. Kedziora,  F. J. Keil,  C. Kelley,  P. P. Korambath,  W. Kurlancheek,  
 A. M. Lee,  M. S. Lee,  D. Liotard,  I. Lotan,  P. E. Maslen,  N. Nair,  
 D. Neuhauser,  R. Olson,  B. Peters,  J. Ritchie,  N. E. Schultz,  
 N. Shenvi,  A. C. Simmonett,  K. S. Thanthiriwatte,  Q. Wu,  W. Zhang

 Please cite Q-Chem as follows:
 Y. Shao et al., Mol. Phys. 113, 184-215 (2015)
 DOI: 10.1080/00268976.2014.952696

 Q-Chem 4.4.2 for Intel X86 Linux

 Parts of Q-Chem use Armadillo 5.200.1 (Boston Tea Smuggler).
 http://arma.sourceforge.net/

 Q-Chem begins on Thu Jun  8 03:56:19 2017  

Host: 
0

     Scratch files written to /tmpu/cab_g/afmv_a/scratch_qchem/qchem59695//
 Dec716 11556_ 22328  22283 4050   
Processing $rem in /tmpu/appuserlic/qchem4.4/serial-multicore/config/preferences.
 MEM_TOTAL  2000 
FILE_GEOM_ORG=        593

Checking the input file for inconsistencies... 	...done.

--------------------------------------------------------------
User input:
--------------------------------------------------------------
$comment
OPTIMIZATION
$end

$rem
JOBTYPE OPT
EXCHANGE omegaB97X-D
BASIS cc-pVTZ
$end

$molecule
0 1
C          0.00000        0.00000        0.00000
C          1.38599        0.00000        0.00000
C         -0.68515       -1.20581        0.00000
C          2.08055       -1.19709        0.02226
C          0.00742       -2.40411        0.01179
C          1.40063       -2.41271        0.04151
C          2.15950       -3.67324        0.15696
C          3.15000       -3.81753        1.08952
C          1.92849       -4.81544       -0.65861
N          3.90172       -4.92812        1.27968
N          1.02636       -4.93526       -1.63501
C          2.72047       -5.99481       -0.47371
C          3.72589       -5.99344        0.54686
S          1.20518       -6.42345       -2.22449
N          2.39935       -6.98227       -1.31015
C          4.58521       -7.13898        0.84639
N          4.63628       -8.25491        0.18914
S          5.66574       -7.04518        2.20635
C          5.53850       -9.10417        0.74263
C          6.20238       -8.64513        1.84759
C          7.23575       -9.32194        2.60049
S          7.77374       -8.76571        4.14997
C          7.93552      -10.44861        2.26648
C          8.92561      -10.01713        4.31769
S          7.95268      -11.49932        0.87497
C          8.90269      -10.85095        3.23436
C          9.23949      -12.44320        1.59845
C          9.63522      -12.01548        2.80749
H         -0.54342        0.93472        0.00000
H          1.93260        0.93382       -0.01501
H         -1.76734       -1.21268        0.00047
H          3.16263       -1.19509        0.00785
H         -0.53593       -3.33924        0.01382
H          3.36185       -2.99842        1.76492
H          5.68114      -10.08542        0.31444
H          9.55754      -10.06772        5.18679
H          9.63163      -13.27769        1.04013
H         10.42350      -12.48477        3.37482
$end

$opt
CONSTRAINT
tors 4 6 7 8 47.06187
tors 10 13 16 18 4.63242
tors 18 20 21 22 15.00000
ENDCONSTRAINT
$end
--------------------------------------------------------------
 ----------------------------------------------------------------
             Standard Nuclear Orientation (Angstroms)
    I     Atom           X                Y                Z
 ----------------------------------------------------------------
    1      C      -8.0006023543     1.6508172694    -0.1492006310
    2      C      -7.1029674361     2.1239132805    -1.0933404500
    3      C      -7.5800756749     0.7221016121     0.7910401990
    4      C      -5.7893689491     1.6877047101    -1.0826321617
    5      C      -6.2696052224     0.2767417048     0.7971102190
    6      C      -5.3534476596     0.7694159324    -0.1302078322
    7      C      -3.9286388243     0.3878028543    -0.0808165184
    8      C      -2.9426574419     1.3352547999    -0.1226917158
    9      C      -3.4704049325    -0.9548663606     0.0211735049
   10      N      -1.6106362434     1.0930818524    -0.0811499011
   11      N      -4.2211855293    -2.0569014676     0.0794782864
   12      C      -2.0643710822    -1.2268371946     0.0590496782
   13      C      -1.1503780081    -0.1250017437     0.0041891484
   14      S      -3.1910936995    -3.2911648787     0.1778520287
   15      N      -1.7808014671    -2.5265937332     0.1487625169
   16      C       0.3046525822    -0.2693702834     0.0537338842
   17      N       0.9676717666    -1.3830506504     0.0510742388
   18      S       1.2887732569     1.1633899774     0.1211078787
   19      C       2.3037763351    -1.1534594239     0.1119602534
   20      C       2.6903514918     0.1581918827     0.1621745522
   21      C       4.0393390115     0.6800017816     0.1892086809
   22      S       4.3896285618     2.3347785624     0.5616658731
   23      C       5.2137429989     0.0215921850    -0.0514115580
   24      C       6.0759455536     2.1313769717     0.3720628463
   25      S       5.6182488929    -1.6113265988    -0.5102549705
   26      C       6.3787020271     0.8386077692     0.0457634215
   27      C       7.3151937308    -1.1787523051    -0.5691653956
   28      C       7.5774549431     0.1006078464    -0.2596803197
   29      H      -9.0225075238     2.0039558642    -0.1460809839
   30      H      -7.4221508486     2.8374596924    -1.8416726302
   31      H      -8.2759092919     0.3490953611     1.5312189126
   32      H      -5.0937194745     2.0475155282    -1.8294365257
   33      H      -5.9507268440    -0.4460855000     1.5357162521
   34      H      -3.2179595328     2.3811166110    -0.1713600374
   35      H       2.9887806249    -1.9881788194     0.1355624139
   36      H       6.7461357494     2.9633044022     0.4984413841
   37      H       8.0229579002    -1.9403687043    -0.8535575601
   38      H       8.5710008269     0.5205408271    -0.2618390052
 ----------------------------------------------------------------
 Molecular Point Group                 C1    NOp =  1
 Largest Abelian Subgroup              C1    NOp =  1
 Nuclear Repulsion Energy =  2866.3110574151 hartrees
 There are      111 alpha and      111 beta electrons
 Requested basis set is cc-pVTZ
 There are 348 shells and 996 basis functions

 Total QAlloc Memory Limit   2000 MB
 Mega-Array Size        61 MB
 MEM_STATIC part        62 MB
 A cutoff of  1.0D-11 yielded  28550 shell pairs
 There are    226044 function pairs (    295339 Cartesian)
 
 -------------------------------------------------------
 OpenMP Integral Computing Module                       
 Release: version 1.0, May 2013, Q-Chem Inc. Pittsburgh 
 -------------------------------------------------------
 Integral Job Info:
 Integral job number is                      11
 Integral operator is                         1
 short-range coefficients              22203600
 long-range coefficients              100000000
 Omega coefficients                         200
 if combine SR and LR in K                    1
 Integral screening is                        0
 Integral computing path is                   2
 max size of driver memory is            800000
 size of driver memory is                776718
 size of scratch memory is             26248924
 max col of scratch BK array              10000
 max len of scratch array in speh3          662
 max len of scratch index in speh4           32
 max int batch size is                      520
 min int batch size is                       52
 fixed nKL is                                52
 max L of basis functions is                  3
 order of int derivative is                   0
 number of shells is                        348
 number of basis is                        1146
 number of cartesian basis is              1146
 number of contracted shell pairs         28550
 number of primitive shell pairs          90654
 maxK2 (contraction) of shell pair          121
 max number of K2 of shell pair               1
 max number of CS2 of shell pair           3868
 max number of PS2 of shell pair          11508
 mem total for path MDJ                  790440
 -------------------------------------------------------
 Smallest overlap matrix eigenvalue = 3.11E-05

 Scale SEOQF with 1.000000e-02/1.000000e-01/1.000000e-01

 Standard Electronic Orientation quadrupole field applied
 Nucleus-field energy     =     0.0000000558 hartrees
 Guess from superposition of atomic densities
 Warning:  Energy on first SCF cycle will be non-variational
 Long-range K will be added via erf
 Coulomb attenuation parameter = 0.2 bohr**(-1)
 A restricted hybrid HF-DFT SCF calculation will be
 performed using Pulay DIIS extrapolation
 Exchange:     0.2220 Hartree-Fock + 1.0000 wB97X-D + LR-HF
 Correlation:  1.0000 wB97X-D
 Using SG-2 standard quadrature grid
 Dispersion:   Grimme D
 SCF converges when DIIS error is below 1.0E-08
 using 16 threads for integral computing 
 using 16 threads for integral computing 
 K construction time:  CPU 67.62 s  wall 4.46 s
 -------------------------------------------------------
 OpenMP BLAS3 based DFT computing Module                
 Release: version 1.0, May 2013, Q-Chem Inc. Pittsburgh 
 -------------------------------------------------------
 ---------------------------------------
  Cycle       Energy         DIIS Error
 ---------------------------------------
    1   -2589.7795007492      1.84E-02
 K construction time:  CPU 1046.47 s  wall 68.16 s
    2   -2579.6154459472      1.36E-03
 K construction time:  CPU 996.58 s  wall 64.99 s
    3   -2579.6501144517      1.37E-03
 K construction time:  CPU 952.77 s  wall 62.12 s
    4   -2579.8556072661      2.17E-04
 K construction time:  CPU 878.81 s  wall 57.26 s
    5   -2579.8602241068      1.20E-04
 K construction time:  CPU 839.92 s  wall 54.75 s
    6   -2579.8619702450      3.63E-05
 K construction time:  CPU 782.64 s  wall 50.96 s
    7   -2579.8621375895      1.54E-05
 K construction time:  CPU 737.70 s  wall 48.14 s
    8   -2579.8621774927      6.01E-06
 K construction time:  CPU 709.60 s  wall 46.18 s
    9   -2579.8621873646      3.82E-06
 K construction time:  CPU 671.64 s  wall 43.79 s
   10   -2579.8621908717      1.10E-06
 K construction time:  CPU 610.32 s  wall 39.72 s
   11   -2579.8621912665      6.20E-07
 K construction time:  CPU 558.34 s  wall 36.35 s
   12   -2579.8621913692      1.86E-07
 K construction time:  CPU 497.11 s  wall 32.39 s
   13   -2579.8621913808      9.13E-08
 K construction time:  CPU 424.43 s  wall 27.50 s
   14   -2579.8621913843      3.41E-08
 K construction time:  CPU 377.53 s  wall 24.48 s
   15   -2579.8621913881      1.39E-08
 K construction time:  CPU 1038.46 s  wall 67.64 s
   16   -2579.8621913801      4.91E-09 Convergence criterion met
 ---------------------------------------
 SCF time:  CPU 14986.43 s  wall 999.54 s
 SCF   energy in the final basis set = -2579.8621913801
 Total energy in the final basis set = -2579.8621913801
 
 --------------------------------------------------------------
 
                    Orbital Energies (a.u.)
 --------------------------------------------------------------
 
 Alpha MOs
 -- Occupied --
-89.149 -89.091 -89.086 -89.080 -14.485 -14.481 -14.453 -14.443
-10.365 -10.362 -10.357 -10.355 -10.344 -10.342 -10.335 -10.333
-10.331 -10.328 -10.324 -10.322 -10.314 -10.312 -10.306 -10.297
-10.296 -10.296 -10.295 -10.295  -8.159  -8.106  -8.101  -8.094
 -6.109  -6.103  -6.103  -6.055  -6.051  -6.050  -6.049  -6.047
 -6.044  -6.044  -6.040  -6.036  -1.145  -1.086  -1.064  -1.024
 -1.009  -0.975  -0.959  -0.925  -0.920  -0.898  -0.877  -0.860
 -0.855  -0.833  -0.829  -0.803  -0.775  -0.744  -0.734  -0.712
 -0.705  -0.693  -0.692  -0.661  -0.651  -0.637  -0.627  -0.614
 -0.606  -0.597  -0.571  -0.563  -0.557  -0.548  -0.542  -0.532
 -0.531  -0.524  -0.514  -0.514  -0.508  -0.503  -0.498  -0.486
 -0.478  -0.475  -0.469  -0.455  -0.449  -0.442  -0.436  -0.433
 -0.430  -0.424  -0.421  -0.399  -0.397  -0.374  -0.367  -0.362
 -0.358  -0.353  -0.339  -0.338  -0.325  -0.307  -0.271
 -- Virtual --
 -0.050  -0.002   0.029   0.043   0.053   0.057   0.063   0.071
  0.084   0.086   0.113   0.118   0.119   0.123   0.129   0.138
  0.139   0.144   0.153   0.155   0.159   0.163   0.171   0.177
  0.189   0.193   0.194   0.203   0.219   0.222   0.235   0.237
  0.245   0.251   0.263   0.268   0.276   0.283   0.288   0.294
  0.299   0.303   0.306   0.309   0.313   0.317   0.325   0.326
  0.329   0.332   0.335   0.339   0.345   0.348   0.351   0.355
  0.360   0.363   0.369   0.373   0.379   0.384   0.386   0.388
  0.390   0.393   0.395   0.399   0.403   0.407   0.410   0.412
  0.415   0.420   0.421   0.428   0.430   0.433   0.434   0.440
  0.443   0.445   0.451   0.454   0.457   0.463   0.465   0.466
  0.468   0.469   0.471   0.475   0.476   0.482   0.487   0.493
  0.493   0.497   0.501   0.505   0.506   0.510   0.511   0.516
  0.521   0.523   0.525   0.530   0.531   0.543   0.545   0.549
  0.554   0.560   0.563   0.566   0.566   0.572   0.577   0.580
  0.586   0.598   0.600   0.606   0.614   0.617   0.625   0.628
  0.629   0.636   0.638   0.649   0.651   0.652   0.658   0.665
  0.669   0.674   0.679   0.689   0.696   0.698   0.716   0.719
  0.721   0.724   0.730   0.734   0.738   0.743   0.746   0.753
  0.756   0.760   0.766   0.768   0.774   0.775   0.779   0.781
  0.790   0.794   0.797   0.802   0.805   0.812   0.819   0.819
  0.826   0.831   0.836   0.842   0.848   0.852   0.857   0.861
  0.867   0.872   0.874   0.880   0.884   0.892   0.895   0.898
  0.899   0.911   0.914   0.916   0.921   0.923   0.932   0.941
  0.943   0.947   0.952   0.955   0.956   0.962   0.968   0.974
  0.978   0.981   0.985   0.992   1.004   1.006   1.012   1.015
  1.022   1.031   1.037   1.043   1.051   1.053   1.055   1.056
  1.069   1.075   1.079   1.083   1.088   1.095   1.099   1.105
  1.108   1.119   1.122   1.129   1.135   1.137   1.147   1.151
  1.160   1.163   1.172   1.177   1.184   1.189   1.204   1.207
  1.207   1.220   1.226   1.228   1.236   1.239   1.252   1.255
  1.256   1.259   1.273   1.276   1.278   1.283   1.294   1.300
  1.314   1.317   1.325   1.336   1.338   1.351   1.359   1.364
  1.364   1.369   1.377   1.390   1.395   1.396   1.407   1.411
  1.415   1.422   1.428   1.433   1.438   1.444   1.446   1.451
  1.454   1.462   1.465   1.474   1.481   1.485   1.486   1.490
  1.494   1.499   1.515   1.518   1.522   1.538   1.544   1.550
  1.560   1.569   1.574   1.579   1.583   1.592   1.605   1.607
  1.610   1.617   1.622   1.629   1.635   1.641   1.651   1.656
  1.657   1.662   1.665   1.673   1.676   1.686   1.689   1.695
  1.699   1.711   1.714   1.721   1.728   1.737   1.744   1.751
  1.757   1.766   1.767   1.771   1.777   1.794   1.797   1.823
  1.824   1.832   1.839   1.845   1.858   1.871   1.885   1.890
  1.893   1.898   1.905   1.911   1.930   1.933   1.936   1.942
  1.950   1.956   1.967   1.974   1.985   1.991   1.994   2.010
  2.013   2.025   2.030   2.034   2.036   2.040   2.047   2.058
  2.072   2.079   2.082   2.094   2.100   2.108   2.116   2.121
  2.131   2.138   2.145   2.154   2.164   2.172   2.174   2.183
  2.193   2.203   2.208   2.211   2.216   2.232   2.238   2.243
  2.250   2.257   2.263   2.271   2.281   2.290   2.295   2.303
  2.320   2.322   2.330   2.334   2.338   2.349   2.357   2.361
  2.370   2.377   2.389   2.393   2.401   2.408   2.417   2.426
  2.432   2.434   2.445   2.451   2.456   2.469   2.472   2.479
  2.483   2.488   2.494   2.500   2.501   2.504   2.519   2.525
  2.534   2.537   2.541   2.554   2.557   2.566   2.571   2.583
  2.590   2.598   2.605   2.611   2.615   2.619   2.624   2.638
  2.649   2.655   2.662   2.673   2.677   2.690   2.697   2.715
  2.722   2.728   2.733   2.740   2.751   2.754   2.763   2.771
  2.775   2.778   2.783   2.785   2.789   2.801   2.806   2.810
  2.816   2.825   2.828   2.834   2.838   2.850   2.852   2.856
  2.868   2.875   2.876   2.890   2.899   2.903   2.910   2.915
  2.922   2.932   2.939   2.951   2.958   2.961   2.966   2.973
  2.983   2.989   2.993   2.995   2.998   3.005   3.009   3.016
  3.022   3.026   3.033   3.035   3.042   3.046   3.056   3.059
  3.066   3.067   3.073   3.077   3.080   3.083   3.094   3.095
  3.098   3.106   3.107   3.117   3.118   3.121   3.126   3.133
  3.138   3.140   3.149   3.151   3.153   3.162   3.164   3.167
  3.171   3.176   3.183   3.189   3.194   3.199   3.201   3.205
  3.209   3.214   3.216   3.222   3.225   3.227   3.240   3.243
  3.252   3.258   3.260   3.264   3.270   3.275   3.282   3.285
  3.288   3.290   3.294   3.298   3.305   3.307   3.312   3.317
  3.323   3.325   3.329   3.335   3.339   3.345   3.353   3.357
  3.365   3.369   3.373   3.381   3.387   3.392   3.398   3.404
  3.413   3.419   3.427   3.429   3.441   3.443   3.448   3.458
  3.460   3.462   3.471   3.471   3.476   3.482   3.484   3.493
  3.496   3.505   3.511   3.519   3.530   3.533   3.537   3.547
  3.559   3.564   3.568   3.573   3.573   3.580   3.583   3.595
  3.600   3.606   3.612   3.619   3.637   3.639   3.667   3.675
  3.684   3.695   3.696   3.708   3.713   3.723   3.734   3.741
  3.748   3.751   3.767   3.772   3.776   3.780   3.787   3.794
  3.805   3.808   3.816   3.833   3.837   3.840   3.852   3.857
  3.858   3.861   3.866   3.871   3.875   3.881   3.887   3.889
  3.894   3.898   3.906   3.923   3.934   3.938   3.944   3.951
  3.961   3.967   3.973   3.977   3.981   3.987   3.990   3.994
  3.997   4.009   4.013   4.032   4.033   4.043   4.057   4.071
  4.076   4.079   4.088   4.089   4.107   4.125   4.133   4.138
  4.143   4.155   4.161   4.165   4.169   4.179   4.186   4.191
  4.198   4.210   4.219   4.226   4.239   4.239   4.256   4.262
  4.271   4.275   4.280   4.287   4.300   4.316   4.320   4.324
  4.335   4.340   4.347   4.352   4.366   4.375   4.377   4.384
  4.392   4.393   4.403   4.416   4.423   4.426   4.431   4.435
  4.445   4.451   4.458   4.473   4.486   4.505   4.522   4.525
  4.529   4.538   4.552   4.564   4.575   4.584   4.597   4.599
  4.605   4.612   4.631   4.640   4.646   4.654   4.672   4.683
  4.693   4.720   4.728   4.746   4.753   4.768   4.778   4.785
  4.790   4.814   4.821   4.832   4.835   4.845   4.845   4.855
  4.863   4.864   4.882   4.892   4.896   4.908   4.926   4.935
  4.947   4.956   4.957   4.968   4.990   4.998   5.001   5.007
  5.025   5.044   5.054   5.066   5.075   5.085   5.088   5.092
  5.096   5.111   5.116   5.121   5.129   5.133   5.146   5.167
  5.188   5.192   5.215   5.242   5.248   5.249   5.266   5.272
  5.276   5.302   5.322   5.347   5.350   5.368   5.380   5.394
  5.400   5.433   5.445   5.468   5.509   5.518   5.522   5.539
  5.568   5.596   5.603   5.630   5.639   5.662   5.674   5.690
  5.729   5.737   5.767   5.794   5.819   5.839   5.853   5.872
  5.886   5.965   5.995   6.027   6.034   6.042   6.054   6.127
  6.153   6.158   6.188   6.213   6.226   6.238   6.271   6.307
  6.376   6.498   6.515   6.856   6.977   8.031   8.590   9.419
 10.149  10.715  11.123  11.143  11.737  12.016  12.293  12.635
 12.737  12.855  12.901  12.951  13.171  13.392  13.460  13.817
 13.843  13.954  14.320  14.686  15.707
 --------------------------------------------------------------
 
          Ground-State Mulliken Net Atomic Charges

     Atom                 Charge (a.u.)
  ----------------------------------------
      1 C                    -0.124675
      2 C                    -0.108164
      3 C                    -0.108848
      4 C                    -0.156702
      5 C                    -0.120461
      6 C                     0.120336
      7 C                     0.010660
      8 C                    -0.110926
      9 C                     0.035398
     10 N                    -0.173674
     11 N                    -0.279388
     12 C                    -0.012223
     13 C                     0.110923
     14 S                     0.411725
     15 N                    -0.222882
     16 C                    -0.007384
     17 N                    -0.140729
     18 S                     0.109880
     19 C                    -0.144978
     20 C                    -0.004271
     21 C                     0.008281
     22 S                     0.123984
     23 C                    -0.036381
     24 C                    -0.218365
     25 S                     0.050941
     26 C                     0.038550
     27 C                    -0.148608
     28 C                    -0.169626
     29 H                     0.118154
     30 H                     0.115057
     31 H                     0.115496
     32 H                     0.130204
     33 H                     0.115331
     34 H                     0.137205
     35 H                     0.143933
     36 H                     0.131404
     37 H                     0.132881
     38 H                     0.127939
  ----------------------------------------
  Sum of atomic charges =     0.000000

 -----------------------------------------------------------------
                    Cartesian Multipole Moments
 -----------------------------------------------------------------
    Charge (ESU x 10^10)
                 0.0000
    Dipole Moment (Debye)
         X       0.9213      Y       1.0572      Z       0.0025
       Tot       1.4023
    Quadrupole Moments (Debye-Ang)
        XX    -139.1252     XY      -0.4187     YY    -178.0642
        XZ      -2.7941     YZ      -1.9876     ZZ    -186.3956
    Octopole Moments (Debye-Ang^2)
       XXX     173.7204    XXY      57.4254    XYY      15.0872
       YYY     -17.8760    XXZ      -0.8320    XYZ      38.8902
       YYZ      -6.9444    XZZ     -29.8371    YZZ      -4.7621
       ZZZ       0.9430
    Hexadecapole Moments (Debye-Ang^3)
      XXXX  -21196.5272   XXXY    -316.3939   XXYY   -4284.5751
      XYYY     161.6696   YYYY   -2932.3099   XXXZ    -345.7549
      XXYZ     -50.0283   XYYZ      56.8308   YYYZ      -6.6609
      XXZZ   -4335.6761   XYZZ      -4.2738   YYZZ    -581.5739
      XZZZ      -0.5221   YZZZ     -17.7806   ZZZZ    -448.0732
 -----------------------------------------------------------------
 Calculating analytic gradient of the SCF energy
 K construction time:  CPU 2628.07 s  wall 165.98 s
 Gradient of SCF Energy
            1           2           3           4           5           6
    1  -0.0004255   0.0009643   0.0004819  -0.0003791  -0.0008372   0.0000273
    2   0.0000962  -0.0008417   0.0003459   0.0000375   0.0006566  -0.0002020
    3   0.0002348   0.0003409  -0.0004877   0.0001221  -0.0003180  -0.0003031
            7           8           9          10          11          12
    1   0.0002265   0.0009108  -0.0000201  -0.0007903  -0.0006132  -0.0003804
    2  -0.0007361   0.0004685  -0.0005803  -0.0003473  -0.0000845   0.0007289
    3   0.0002378  -0.0003014  -0.0004176   0.0001517  -0.0000963  -0.0000445
           13          14          15          16          17          18
    1   0.0001900  -0.0001118   0.0006587   0.0010856  -0.0011061   0.0005063
    2  -0.0002499   0.0004804   0.0001385   0.0002305  -0.0000851   0.0005568
    3  -0.0000555   0.0001533  -0.0002302   0.0000870  -0.0006176   0.0002384
           19          20          21          22          23          24
    1  -0.0004922  -0.0014804   0.0036575  -0.0008956  -0.0012172   0.0000347
    2   0.0009440  -0.0029407  -0.0004401   0.0008498   0.0016144   0.0012399
    3  -0.0004943   0.0014492  -0.0018957   0.0003721   0.0012022   0.0002562
           25          26          27          28          29          30
    1  -0.0010953   0.0001785   0.0007841  -0.0004923   0.0002149   0.0000755
    2  -0.0022256  -0.0002482   0.0009935   0.0005499   0.0002289   0.0003301
    3  -0.0003433   0.0001853   0.0005363   0.0008892   0.0002167  -0.0004514
           31          32          33          34          35          36
    1  -0.0002740   0.0000216  -0.0000670  -0.0005913   0.0015244   0.0001682
    2   0.0000174  -0.0002830  -0.0003205  -0.0003007   0.0006094  -0.0004876
    3   0.0005453  -0.0003223   0.0004446   0.0003150   0.0001636  -0.0005436
           37          38
    1  -0.0005318   0.0000903
    2  -0.0002907  -0.0004531
    3  -0.0008137  -0.0004055
 Max gradient component =       3.657E-03
 RMS gradient           =       7.784E-04
 Gradient time:  CPU 3065.62 s  wall 195.29 s
 Geometry Optimization Parameters
   NAtoms,    NIC,     NZ,  NCons,   NDum,   NFix, NCnnct, MaxDiis
       38     289       0       3       0       0       0       0


** CONSTRAINED OPTIMIZATION IN DELOCALIZED INTERNAL COORDINATES **
   Searching for a Minimum

   Optimization Cycle:   1

                       Coordinates (Angstroms)
     ATOM                X               Y               Z
      1  C        -8.0006023543    1.6508172694   -0.1492006310
      2  C        -7.1029674361    2.1239132805   -1.0933404500
      3  C        -7.5800756749    0.7221016121    0.7910401990
      4  C        -5.7893689491    1.6877047101   -1.0826321617
      5  C        -6.2696052224    0.2767417048    0.7971102190
      6  C        -5.3534476596    0.7694159324   -0.1302078322
      7  C        -3.9286388243    0.3878028543   -0.0808165184
      8  C        -2.9426574419    1.3352547999   -0.1226917158
      9  C        -3.4704049325   -0.9548663606    0.0211735049
     10  N        -1.6106362434    1.0930818524   -0.0811499011
     11  N        -4.2211855293   -2.0569014676    0.0794782864
     12  C        -2.0643710822   -1.2268371946    0.0590496782
     13  C        -1.1503780081   -0.1250017437    0.0041891484
     14  S        -3.1910936995   -3.2911648787    0.1778520287
     15  N        -1.7808014671   -2.5265937332    0.1487625169
     16  C         0.3046525822   -0.2693702834    0.0537338842
     17  N         0.9676717666   -1.3830506504    0.0510742388
     18  S         1.2887732569    1.1633899774    0.1211078787
     19  C         2.3037763351   -1.1534594239    0.1119602534
     20  C         2.6903514918    0.1581918827    0.1621745522
     21  C         4.0393390115    0.6800017816    0.1892086809
     22  S         4.3896285618    2.3347785624    0.5616658731
     23  C         5.2137429989    0.0215921850   -0.0514115580
     24  C         6.0759455536    2.1313769717    0.3720628463
     25  S         5.6182488929   -1.6113265988   -0.5102549705
     26  C         6.3787020271    0.8386077692    0.0457634215
     27  C         7.3151937308   -1.1787523051   -0.5691653956
     28  C         7.5774549431    0.1006078464   -0.2596803197
     29  H        -9.0225075238    2.0039558642   -0.1460809839
     30  H        -7.4221508486    2.8374596924   -1.8416726302
     31  H        -8.2759092919    0.3490953611    1.5312189126
     32  H        -5.0937194745    2.0475155282   -1.8294365257
     33  H        -5.9507268440   -0.4460855000    1.5357162521
     34  H        -3.2179595328    2.3811166110   -0.1713600374
     35  H         2.9887806249   -1.9881788194    0.1355624139
     36  H         6.7461357494    2.9633044022    0.4984413841
     37  H         8.0229579002   -1.9403687043   -0.8535575601
     38  H         8.5710008269    0.5205408271   -0.2618390052
   Point Group: c1    Number of degrees of freedom:   108


   Energy is  -2579.862191380

              Constraints and their Current Values
                                        Value     Constraint
   Dihedral:        4   6   7   8       47.013       47.062
   Dihedral:       10  13  16  18        4.689        4.632
   Dihedral:       18  20  21  22       14.999       15.000

 Attempting to Generate Delocalized Internal Coordinates

   Using Lagrange Multiplier Algorithm


111 Hessian modes will be used to form the next step
  Hessian Eigenvalues:
    -0.977753   -0.977753   -0.977753    0.045000    0.045000    0.045000
     0.045000    0.045000    0.045000    0.045000    0.045000    0.045000
     0.045000    0.045000    0.045000    0.045001    0.045001    0.045001
     0.045001    0.045001    0.045002    0.045002    0.045003    0.045003
     0.045004    0.045005    0.045005    0.045007    0.045008    0.045008
     0.045012    0.045021    0.045031    0.045040    0.045052    0.159964
     0.159978    0.159978    0.159981    0.159982    0.159991    0.159991
     0.159994    0.160000    0.160000    0.219984    0.219994    0.225219
     0.233057    0.234605    0.234757    0.237025    0.247519    0.249693
     0.249750    0.249778    0.249982    0.249986    0.249988    0.249992
     0.249995    0.249997    0.249999    0.249999    0.250000    0.296272
     0.304568    0.308355    0.315687    0.324180    0.337613    0.350485
     0.356840    0.357284    0.357325    0.357370    0.358104    0.358490
     0.359862    0.361582    0.362492    0.365132    0.365895    0.369132
     0.381387    0.386878    0.389561    0.393560    0.413656    0.429805
     0.432305    0.470765    0.472706    0.474104    0.479085    0.480434
     0.482725    0.483543    0.486778    0.496421    0.509554    0.519731
     0.527463    0.543229    0.556243    0.579533    0.638655    0.653866
     1.022753    1.022753    1.022753

 Minimum Search - Taking P-RFO Step
 Searching for Lamda that Maximizes Along the Constraint modes Only
 Value Taken    Lamda =   0.00000292
 Searching for Lamda that Minimizes Along All other modes
 Value Taken    Lamda =  -0.00052434
 Step Taken.  Stepsize is  0.080047

                             Maximum     Tolerance    Cnvgd?
         Gradient            0.005128       0.000300      NO
         Displacement        0.036506       0.001200      NO
         Energy change     *********       0.000001      NO


 New Cartesian Coordinates Obtained by Inverse Iteration

 Displacement from previous Coordinates is:  0.484450
 ----------------------------------------------------------------
             Standard Nuclear Orientation (Angstroms)
    I     Atom           X                Y                Z
 ----------------------------------------------------------------
    1      C      -8.0250055472     1.5981531013    -0.1446631773
    2      C      -7.1402707148     2.1071235359    -1.0821184692
    3      C      -7.5786287662     0.6774249155     0.7916399447
    4      C      -5.8136117491     1.7085976064    -1.0730603356
    5      C      -6.2548195807     0.2736872529     0.7988221748
    6      C      -5.3532441727     0.7968051574    -0.1251472272
    7      C      -3.9250278392     0.4285063390    -0.0828843315
    8      C      -2.9362927801     1.3731811330    -0.1299552364
    9      C      -3.4699224100    -0.9149083564     0.0254353353
   10      N      -1.6043462282     1.1241102890    -0.0962076268
   11      N      -4.2245013566    -2.0138560611     0.0929546950
   12      C      -2.0664095185    -1.1944922041     0.0614818216
   13      C      -1.1497879544    -0.0961944636    -0.0053321125
   14      S      -3.2020211396    -3.2542303651     0.1948134232
   15      N      -1.7892066137    -2.4952821558     0.1589345665
   16      C       0.3034755122    -0.2508131921     0.0352960790
   17      N       0.9584382296    -1.3691189473     0.0414468048
   18      S       1.2998921704     1.1733817846     0.0842970883
   19      C       2.2961261180    -1.1516628614     0.0942972151
   20      C       2.6952146520     0.1585598427     0.1312760201
   21      C       4.0466973888     0.6696145677     0.1638469075
   22      S       4.4020341997     2.3216730588     0.5380629952
   23      C       5.2247624621     0.0075426261    -0.0666584809
   24      C       6.0887834174     2.1129494895     0.3709974024
   25      S       5.6381140555    -1.6237739671    -0.5166363134
   26      C       6.3915893703     0.8208185625     0.0462324334
   27      C       7.3368996883    -1.1989469219    -0.5466092919
   28      C       7.5948243989     0.0814494519    -0.2392397875
   29      H      -9.0586591610     1.9159169922    -0.1449238852
   30      H      -7.4813208044     2.8142129425    -1.8258396598
   31      H      -8.2651837422     0.2751013364     1.5239068874
   32      H      -5.1282655942     2.0922595295    -1.8172148767
   33      H      -5.9155568474    -0.4475516411     1.5287672910
   34      H      -3.2032973525     2.4210612682    -0.1859681702
   35      H       2.9644533112    -1.9985852398     0.1262586767
   36      H       6.7577639939     2.9439163998     0.5132519409
   37      H       8.0516186977    -1.9627361255    -0.8063162966
   38      H       8.5878404204     0.5025169341    -0.2193964476
 ----------------------------------------------------------------
 Molecular Point Group                 C1    NOp =  1
 Largest Abelian Subgroup              C1    NOp =  1
 Nuclear Repulsion Energy =  2866.1312782231 hartrees
 There are      111 alpha and      111 beta electrons
 Applying Cartesian multipole field
    Component          Value
    ---------          -----
     (2,0,0)        1.00000E-12
     (0,2,0)        2.00000E-11
     (0,0,2)       -3.00000E-11
 Nucleus-field energy     =     0.0000000554 hartrees
 Requested basis set is cc-pVTZ
 There are 348 shells and 996 basis functions
 A cutoff of  1.0D-11 yielded  28544 shell pairs
 There are    225954 function pairs (    295232 Cartesian)
 Smallest overlap matrix eigenvalue = 3.10E-05
 Guess MOs from SCF MO coefficient file
 Reading MOs from coefficient file
 Reading MOs from coefficient file
 Long-range K will be added via erf
 Coulomb attenuation parameter = 0.2 bohr**(-1)
 A restricted hybrid HF-DFT SCF calculation will be
 performed using Pulay DIIS extrapolation
 Exchange:     0.2220 Hartree-Fock + 1.0000 wB97X-D + LR-HF
 Correlation:  1.0000 wB97X-D
 Using SG-2 standard quadrature grid
 Dispersion:   Grimme D
 SCF converges when DIIS error is below 1.0E-08
 Geometry optimization detected.  Setting ReadMinima to 0
 Setting SaveMinima to 0
 using 16 threads for integral computing 
 using 16 threads for integral computing 
 K construction time:  CPU 1036.47 s  wall 67.60 s
 -------------------------------------------------------
 OpenMP BLAS3 based DFT computing Module                
 Release: version 1.0, May 2013, Q-Chem Inc. Pittsburgh 
 -------------------------------------------------------
 ---------------------------------------
  Cycle       Energy         DIIS Error
 ---------------------------------------
    1   -2579.8619011389      2.43E-04
 K construction time:  CPU 1036.89 s  wall 67.68 s
    2   -2579.8623159929      2.49E-05
 K construction time:  CPU 763.43 s  wall 49.78 s
    3   -2579.8624621259      1.80E-05
 K construction time:  CPU 719.44 s  wall 47.07 s
    4   -2579.8624942106      1.11E-05
 K construction time:  CPU 689.54 s  wall 44.90 s
    5   -2579.8625105537      3.73E-06
 K construction time:  CPU 621.70 s  wall 40.59 s
    6   -2579.8625125553      1.26E-06
 K construction time:  CPU 566.68 s  wall 36.88 s
    7   -2579.8625127975      4.45E-07
 K construction time:  CPU 524.75 s  wall 34.16 s
    8   -2579.8625128362      1.99E-07
 K construction time:  CPU 477.46 s  wall 31.03 s
    9   -2579.8625128435      7.07E-08
 K construction time:  CPU 406.15 s  wall 26.34 s
   10   -2579.8625128448      2.71E-08
 K construction time:  CPU 383.65 s  wall 24.86 s
   11   -2579.8625128465      1.12E-08
 K construction time:  CPU 309.86 s  wall 20.13 s
   12   -2579.8625128438      5.48E-09 Convergence criterion met
 ---------------------------------------
 SCF time:  CPU 10212.07 s  wall 682.25 s
 SCF   energy in the final basis set = -2579.8625128438
 Total energy in the final basis set = -2579.8625128438
 
 --------------------------------------------------------------
 
                    Orbital Energies (a.u.)
 --------------------------------------------------------------
 
 Alpha MOs
 -- Occupied --
-89.149 -89.091 -89.086 -89.080 -14.485 -14.481 -14.453 -14.443
-10.364 -10.361 -10.357 -10.355 -10.344 -10.343 -10.335 -10.333
-10.331 -10.328 -10.324 -10.322 -10.314 -10.311 -10.306 -10.297
-10.295 -10.295 -10.295 -10.294  -8.159  -8.106  -8.101  -8.094
 -6.109  -6.103  -6.103  -6.055  -6.051  -6.050  -6.049  -6.047
 -6.044  -6.044  -6.040  -6.036  -1.145  -1.086  -1.064  -1.024
 -1.009  -0.974  -0.960  -0.925  -0.920  -0.898  -0.877  -0.860
 -0.855  -0.833  -0.829  -0.803  -0.775  -0.744  -0.734  -0.712
 -0.705  -0.693  -0.692  -0.661  -0.651  -0.637  -0.627  -0.614
 -0.606  -0.597  -0.571  -0.563  -0.557  -0.548  -0.542  -0.532
 -0.531  -0.524  -0.514  -0.513  -0.508  -0.504  -0.498  -0.487
 -0.478  -0.476  -0.469  -0.455  -0.449  -0.442  -0.436  -0.433
 -0.430  -0.424  -0.420  -0.399  -0.397  -0.374  -0.367  -0.362
 -0.358  -0.353  -0.339  -0.338  -0.325  -0.307  -0.270
 -- Virtual --
 -0.050  -0.002   0.029   0.043   0.053   0.057   0.064   0.071
  0.083   0.087   0.113   0.118   0.119   0.123   0.129   0.138
  0.139   0.144   0.153   0.156   0.159   0.163   0.171   0.176
  0.189   0.193   0.194   0.202   0.219   0.221   0.236   0.237
  0.245   0.251   0.263   0.268   0.276   0.283   0.289   0.295
  0.299   0.303   0.306   0.308   0.313   0.316   0.325   0.326
  0.328   0.331   0.335   0.340   0.345   0.348   0.351   0.355
  0.360   0.363   0.369   0.373   0.379   0.384   0.386   0.388
  0.389   0.394   0.395   0.400   0.403   0.408   0.410   0.412
  0.414   0.420   0.421   0.429   0.430   0.432   0.434   0.440
  0.443   0.445   0.450   0.454   0.456   0.463   0.465   0.466
  0.468   0.470   0.471   0.474   0.475   0.481   0.487   0.493
  0.493   0.496   0.501   0.505   0.505   0.510   0.512   0.516
  0.521   0.523   0.525   0.530   0.531   0.543   0.545   0.550
  0.555   0.560   0.563   0.565   0.567   0.573   0.578   0.579
  0.585   0.598   0.600   0.605   0.614   0.617   0.625   0.628
  0.630   0.636   0.638   0.649   0.651   0.653   0.659   0.665
  0.669   0.674   0.680   0.691   0.696   0.698   0.716   0.719
  0.721   0.723   0.730   0.733   0.738   0.743   0.746   0.754
  0.756   0.760   0.765   0.769   0.774   0.775   0.779   0.781
  0.790   0.795   0.796   0.801   0.806   0.812   0.819   0.820
  0.827   0.831   0.837   0.841   0.848   0.852   0.857   0.862
  0.868   0.872   0.873   0.881   0.885   0.891   0.895   0.898
  0.899   0.911   0.914   0.916   0.922   0.923   0.932   0.942
  0.944   0.946   0.953   0.955   0.956   0.962   0.969   0.975
  0.978   0.981   0.984   0.992   1.003   1.006   1.013   1.016
  1.022   1.031   1.038   1.044   1.051   1.053   1.056   1.056
  1.069   1.074   1.078   1.083   1.088   1.095   1.098   1.104
  1.108   1.119   1.121   1.129   1.135   1.137   1.147   1.151
  1.160   1.164   1.172   1.177   1.185   1.189   1.204   1.208
  1.209   1.219   1.224   1.227   1.236   1.239   1.251   1.253
  1.256   1.259   1.273   1.276   1.279   1.283   1.294   1.301
  1.314   1.319   1.325   1.336   1.339   1.351   1.359   1.363
  1.364   1.368   1.377   1.391   1.394   1.396   1.408   1.411
  1.414   1.422   1.428   1.434   1.439   1.444   1.447   1.451
  1.455   1.464   1.466   1.476   1.482   1.485   1.487   1.490
  1.494   1.498   1.516   1.517   1.521   1.538   1.543   1.550
  1.560   1.567   1.574   1.579   1.583   1.592   1.605   1.607
  1.612   1.616   1.622   1.629   1.636   1.641   1.650   1.656
  1.657   1.661   1.665   1.673   1.676   1.686   1.690   1.695
  1.697   1.711   1.714   1.721   1.728   1.737   1.743   1.750
  1.756   1.765   1.767   1.771   1.776   1.793   1.797   1.824
  1.825   1.833   1.838   1.845   1.858   1.870   1.884   1.890
  1.892   1.898   1.905   1.910   1.931   1.934   1.936   1.941
  1.951   1.955   1.967   1.974   1.984   1.991   1.994   2.010
  2.013   2.024   2.030   2.034   2.035   2.040   2.047   2.057
  2.072   2.081   2.082   2.093   2.098   2.109   2.116   2.122
  2.132   2.136   2.145   2.155   2.164   2.171   2.175   2.182
  2.194   2.204   2.209   2.211   2.216   2.232   2.238   2.244
  2.251   2.258   2.263   2.271   2.280   2.289   2.294   2.301
  2.320   2.323   2.331   2.333   2.339   2.349   2.358   2.361
  2.371   2.377   2.389   2.394   2.400   2.407   2.420   2.428
  2.431   2.435   2.445   2.451   2.456   2.470   2.471   2.478
  2.484   2.488   2.494   2.498   2.501   2.505   2.519   2.525
  2.534   2.537   2.541   2.555   2.557   2.567   2.571   2.584
  2.592   2.599   2.604   2.611   2.615   2.619   2.625   2.638
  2.648   2.655   2.662   2.675   2.677   2.690   2.696   2.714
  2.722   2.728   2.733   2.738   2.750   2.755   2.764   2.773
  2.774   2.778   2.784   2.786   2.788   2.800   2.806   2.810
  2.815   2.826   2.830   2.833   2.839   2.849   2.852   2.856
  2.868   2.875   2.876   2.890   2.899   2.903   2.910   2.915
  2.923   2.932   2.940   2.950   2.957   2.962   2.966   2.973
  2.982   2.989   2.993   2.996   2.999   3.006   3.009   3.017
  3.021   3.026   3.033   3.036   3.041   3.045   3.056   3.058
  3.066   3.067   3.073   3.077   3.081   3.083   3.095   3.095
  3.098   3.106   3.107   3.117   3.119   3.121   3.126   3.133
  3.138   3.139   3.149   3.151   3.153   3.162   3.164   3.167
  3.172   3.176   3.183   3.189   3.193   3.199   3.202   3.205
  3.208   3.214   3.216   3.221   3.225   3.227   3.239   3.243
  3.251   3.258   3.260   3.264   3.269   3.275   3.283   3.285
  3.288   3.289   3.294   3.298   3.303   3.307   3.313   3.318
  3.324   3.326   3.329   3.335   3.339   3.345   3.353   3.357
  3.365   3.369   3.373   3.381   3.387   3.392   3.398   3.404
  3.413   3.418   3.428   3.430   3.440   3.443   3.448   3.459
  3.460   3.462   3.470   3.472   3.476   3.482   3.484   3.492
  3.496   3.505   3.512   3.519   3.530   3.533   3.537   3.547
  3.559   3.564   3.568   3.572   3.573   3.581   3.583   3.596
  3.601   3.606   3.613   3.619   3.637   3.641   3.666   3.675
  3.686   3.696   3.698   3.708   3.715   3.723   3.733   3.741
  3.748   3.750   3.766   3.772   3.776   3.780   3.786   3.796
  3.805   3.809   3.816   3.833   3.837   3.840   3.852   3.856
  3.860   3.861   3.866   3.869   3.874   3.881   3.887   3.888
  3.893   3.899   3.906   3.922   3.934   3.938   3.944   3.950
  3.961   3.967   3.972   3.976   3.982   3.986   3.990   3.994
  3.998   4.009   4.013   4.031   4.032   4.042   4.056   4.069
  4.075   4.078   4.085   4.089   4.106   4.124   4.132   4.136
  4.141   4.154   4.161   4.164   4.170   4.178   4.185   4.191
  4.198   4.210   4.218   4.227   4.236   4.240   4.256   4.261
  4.271   4.275   4.280   4.287   4.301   4.317   4.320   4.324
  4.335   4.342   4.347   4.353   4.366   4.374   4.376   4.384
  4.391   4.394   4.403   4.416   4.423   4.426   4.431   4.434
  4.445   4.451   4.459   4.472   4.487   4.506   4.523   4.524
  4.527   4.540   4.553   4.564   4.575   4.582   4.596   4.600
  4.606   4.612   4.632   4.639   4.646   4.654   4.672   4.686
  4.691   4.722   4.729   4.746   4.753   4.770   4.779   4.786
  4.793   4.813   4.821   4.831   4.835   4.844   4.846   4.855
  4.862   4.866   4.883   4.891   4.896   4.907   4.925   4.935
  4.948   4.955   4.956   4.968   4.990   4.999   5.002   5.007
  5.027   5.043   5.054   5.066   5.076   5.084   5.089   5.093
  5.097   5.112   5.118   5.121   5.130   5.133   5.145   5.169
  5.188   5.193   5.215   5.243   5.248   5.250   5.266   5.271
  5.278   5.301   5.323   5.345   5.352   5.366   5.379   5.394
  5.400   5.432   5.446   5.468   5.509   5.519   5.524   5.539
  5.567   5.598   5.604   5.631   5.640   5.664   5.675   5.692
  5.731   5.738   5.768   5.796   5.820   5.841   5.855   5.874
  5.886   5.967   5.995   6.027   6.030   6.041   6.053   6.129
  6.154   6.159   6.191   6.213   6.225   6.239   6.273   6.311
  6.378   6.496   6.516   6.858   6.979   8.029   8.590   9.435
 10.151  10.721  11.126  11.150  11.740  12.018  12.312  12.623
 12.749  12.839  12.894  12.945  13.165  13.405  13.467  13.811
 13.842  13.958  14.286  14.676  15.706
 --------------------------------------------------------------
 
          Ground-State Mulliken Net Atomic Charges

     Atom                 Charge (a.u.)
  ----------------------------------------
      1 C                    -0.124451
      2 C                    -0.108607
      3 C                    -0.110060
      4 C                    -0.154525
      5 C                    -0.120932
      6 C                     0.121809
      7 C                     0.011666
      8 C                    -0.108997
      9 C                     0.034511
     10 N                    -0.174420
     11 N                    -0.280965
     12 C                    -0.012472
     13 C                     0.111164
     14 S                     0.412161
     15 N                    -0.223162
     16 C                    -0.008008
     17 N                    -0.140211
     18 S                     0.109842
     19 C                    -0.144840
     20 C                    -0.003895
     21 C                     0.008249
     22 S                     0.124613
     23 C                    -0.039690
     24 C                    -0.218472
     25 S                     0.052021
     26 C                     0.040212
     27 C                    -0.148538
     28 C                    -0.169362
     29 H                     0.118087
     30 H                     0.115432
     31 H                     0.115704
     32 H                     0.129385
     33 H                     0.114996
     34 H                     0.136401
     35 H                     0.143383
     36 H                     0.131251
     37 H                     0.132930
     38 H                     0.127790
  ----------------------------------------
  Sum of atomic charges =     0.000000

 -----------------------------------------------------------------
                    Cartesian Multipole Moments
 -----------------------------------------------------------------
    Charge (ESU x 10^10)
                 0.0000
    Dipole Moment (Debye)
         X       0.9340      Y       0.9984      Z       0.0418
       Tot       1.3678
    Quadrupole Moments (Debye-Ang)
        XX    -138.7580     XY      -0.1961     YY    -178.0575
        XZ      -2.1674     YZ      -2.0701     ZZ    -186.5161
    Octopole Moments (Debye-Ang^2)
       XXX     173.2669    XXY      52.2031    XYY      15.2351
       YYY     -21.2664    XXZ       1.6078    XYZ      39.4549
       YYZ      -5.8750    XZZ     -30.2865    YZZ      -5.6382
       ZZZ       3.6058
    Hexadecapole Moments (Debye-Ang^3)
      XXXX  -21228.6540   XXXY    -280.5990   XXYY   -4300.1116
      XYYY     179.4739   YYYY   -2896.8262   XXXZ    -285.0055
      XXYZ     -54.0378   XYYZ      61.8907   YYYZ      -0.6499
      XXZZ   -4358.8419   XYZZ       4.5759   YYZZ    -574.6452
      XZZZ      10.7305   YZZZ     -11.1948   ZZZZ    -443.0135
 -----------------------------------------------------------------
 Calculating analytic gradient of the SCF energy
 K construction time:  CPU 2647.66 s  wall 167.27 s
 Gradient of SCF Energy
            1           2           3           4           5           6
    1  -0.0001447  -0.0000561   0.0000492  -0.0001619   0.0003067  -0.0001724
    2  -0.0001167   0.0001009   0.0000358  -0.0001136   0.0004211  -0.0003230
    3   0.0000813   0.0000062  -0.0000559  -0.0006137  -0.0000817   0.0004263
            7           8           9          10          11          12
    1   0.0000290   0.0007137  -0.0000614  -0.0004331   0.0001816  -0.0000400
    2  -0.0010122   0.0007011   0.0005894   0.0001917   0.0004016   0.0007169
    3  -0.0002534   0.0007167  -0.0004963  -0.0002112   0.0002214   0.0000050
           13          14          15          16          17          18
    1  -0.0000763  -0.0000765  -0.0000808   0.0002597  -0.0004834  -0.0000047
    2  -0.0004041  -0.0007983   0.0000115  -0.0002146   0.0001031   0.0001459
    3   0.0001617   0.0000263  -0.0000417  -0.0000937  -0.0003307   0.0001826
           19          20          21          22          23          24
    1  -0.0000929  -0.0003867   0.0004737  -0.0003917  -0.0005453   0.0001481
    2  -0.0000466  -0.0006032   0.0000966   0.0000343   0.0006201  -0.0002538
    3  -0.0006868   0.0013286  -0.0008784  -0.0001643   0.0006756  -0.0000281
           25          26          27          28          29          30
    1  -0.0001069   0.0001789   0.0007719  -0.0000925   0.0001244   0.0000111
    2  -0.0002622   0.0002313   0.0003496  -0.0001683   0.0002088  -0.0000360
    3  -0.0001711   0.0004829   0.0002840  -0.0000045   0.0001427  -0.0000512
           31          32          33          34          35          36
    1   0.0000308  -0.0001198   0.0000830  -0.0001405   0.0001566   0.0001370
    2   0.0000970  -0.0002990  -0.0002923  -0.0000315   0.0002547  -0.0000764
    3   0.0000658  -0.0001856  -0.0000450   0.0000980   0.0002405  -0.0002372
           37          38
    1  -0.0000962   0.0001084
    2  -0.0000420  -0.0002177
    3  -0.0003308  -0.0001840
 Max gradient component =       1.329E-03
 RMS gradient           =       3.494E-04
 Gradient time:  CPU 3086.57 s  wall 196.65 s
 Geometry Optimization Parameters
   NAtoms,    NIC,     NZ,  NCons,   NDum,   NFix, NCnnct, MaxDiis
       38     289       0       3       0       0       0       0

 Cartesian Hessian Update
 Hessian Updated using BFGS Update


** CONSTRAINED OPTIMIZATION IN DELOCALIZED INTERNAL COORDINATES **
   Searching for a Minimum

   Optimization Cycle:   2

                       Coordinates (Angstroms)
     ATOM                X               Y               Z
      1  C        -8.0250055472    1.5981531013   -0.1446631773
      2  C        -7.1402707148    2.1071235359   -1.0821184692
      3  C        -7.5786287662    0.6774249155    0.7916399447
      4  C        -5.8136117491    1.7085976064   -1.0730603356
      5  C        -6.2548195807    0.2736872529    0.7988221748
      6  C        -5.3532441727    0.7968051574   -0.1251472272
      7  C        -3.9250278392    0.4285063390   -0.0828843315
      8  C        -2.9362927801    1.3731811330   -0.1299552364
      9  C        -3.4699224100   -0.9149083564    0.0254353353
     10  N        -1.6043462282    1.1241102890   -0.0962076268
     11  N        -4.2245013566   -2.0138560611    0.0929546950
     12  C        -2.0664095185   -1.1944922041    0.0614818216
     13  C        -1.1497879544   -0.0961944636   -0.0053321125
     14  S        -3.2020211396   -3.2542303651    0.1948134232
     15  N        -1.7892066137   -2.4952821558    0.1589345665
     16  C         0.3034755122   -0.2508131921    0.0352960790
     17  N         0.9584382296   -1.3691189473    0.0414468048
     18  S         1.2998921704    1.1733817846    0.0842970883
     19  C         2.2961261180   -1.1516628614    0.0942972151
     20  C         2.6952146520    0.1585598427    0.1312760201
     21  C         4.0466973888    0.6696145677    0.1638469075
     22  S         4.4020341997    2.3216730588    0.5380629952
     23  C         5.2247624621    0.0075426261   -0.0666584809
     24  C         6.0887834174    2.1129494895    0.3709974024
     25  S         5.6381140555   -1.6237739671   -0.5166363134
     26  C         6.3915893703    0.8208185625    0.0462324334
     27  C         7.3368996883   -1.1989469219   -0.5466092919
     28  C         7.5948243989    0.0814494519   -0.2392397875
     29  H        -9.0586591610    1.9159169922   -0.1449238852
     30  H        -7.4813208044    2.8142129425   -1.8258396598
     31  H        -8.2651837422    0.2751013364    1.5239068874
     32  H        -5.1282655942    2.0922595295   -1.8172148767
     33  H        -5.9155568474   -0.4475516411    1.5287672910
     34  H        -3.2032973525    2.4210612682   -0.1859681702
     35  H         2.9644533112   -1.9985852398    0.1262586767
     36  H         6.7577639939    2.9439163998    0.5132519409
     37  H         8.0516186977   -1.9627361255   -0.8063162966
     38  H         8.5878404204    0.5025169341   -0.2193964476
   Point Group: c1    Number of degrees of freedom:   108


   Energy is  -2579.862512844

              Constraints and their Current Values
                                        Value     Constraint
   Dihedral:        4   6   7   8       47.062       47.062
   Dihedral:       10  13  16  18        4.632        4.632
   Dihedral:       18  20  21  22       15.000       15.000
 Hessian Updated using BFGS Update

 99 Hessian modes will be used to form the next step
  Hessian Eigenvalues:
     0.028522    0.045000    0.045000    0.045000    0.045000    0.045000
     0.045000    0.045000    0.045001    0.045001    0.045002    0.045002
     0.045002    0.045003    0.045004    0.045004    0.045005    0.045006
     0.045007    0.045007    0.045012    0.045020    0.045024    0.045038
     0.045047    0.046076    0.155836    0.159975    0.159979    0.159980
     0.159988    0.159990    0.159994    0.159999    0.160000    0.160619
     0.219968    0.219993    0.225567    0.233218    0.234650    0.234732
     0.236836    0.245451    0.247905    0.249750    0.249774    0.249856
     0.249983    0.249989    0.249992    0.249994    0.249997    0.249998
     0.250000    0.289703    0.296015    0.303765    0.308565    0.316286
     0.324744    0.336396    0.350519    0.356842    0.357264    0.357335
     0.357438    0.357946    0.358481    0.360106    0.361587    0.362487
     0.365117    0.365778    0.374818    0.384830    0.386511    0.389560
     0.393508    0.415317    0.429813    0.435453    0.471007    0.472546
     0.474103    0.480377    0.482591    0.483105    0.485264    0.490913
     0.502629    0.509420    0.519351    0.526989    0.544846    0.557284
     0.580420    0.640483    0.653948

 Minimum Search - Taking Simple RFO Step
 Searching for Lamda that Minimizes Along All modes
 Value Taken    Lamda =  -0.00013764
 Step Taken.  Stepsize is  0.065251

                             Maximum     Tolerance    Cnvgd?
         Gradient           0.000928      0.000300      NO
         Displacement       0.026255      0.001200      NO
         Energy change     -0.000321      0.000001      NO


 New Cartesian Coordinates Obtained by Inverse Iteration

 Displacement from previous Coordinates is:  0.226121
 ----------------------------------------------------------------
             Standard Nuclear Orientation (Angstroms)
    I     Atom           X                Y                Z
 ----------------------------------------------------------------
    1      C      -8.0334238426     1.5759570351    -0.1602993957
    2      C      -7.1436958317     2.1043312828    -1.0819298989
    3      C      -7.5859412097     0.6578239690     0.7780664491
    4      C      -5.8120506725     1.7230002120    -1.0592855438
    5      C      -6.2565532704     0.2734446916     0.8004698234
    6      C      -5.3512613250     0.8113880720    -0.1120650425
    7      C      -3.9230291142     0.4430613934    -0.0713096770
    8      C      -2.9320654938     1.3842216276    -0.1190913600
    9      C      -3.4704444264    -0.9024692934     0.0390746748
   10      N      -1.6002379428     1.1315660241    -0.0895885986
   11      N      -4.2279457609    -1.9995103292     0.1064455814
   12      C      -2.0671327581    -1.1861024085     0.0746422116
   13      C      -1.1484000363    -0.0893443661     0.0027690643
   14      S      -3.2074922120    -3.2408010094     0.2103025092
   15      N      -1.7923918998    -2.4869856630     0.1734798197
   16      C       0.3045906402    -0.2462093637     0.0336236148
   17      N       0.9590129465    -1.3650371726     0.0416249561
   18      S       1.3030548030     1.1766392694     0.0699814558
   19      C       2.2969088445    -1.1495193067     0.0842567079
   20      C       2.6978518785     0.1609182965     0.1117986791
   21      C       4.0489718075     0.6688443324     0.1462671516
   22      S       4.4062993335     2.3185038898     0.5281369004
   23      C       5.2269297527     0.0047427829    -0.0835223415
   24      C       6.0923378257     2.1074586491     0.3682571680
   25      S       5.6399645901    -1.6259882019    -0.5316419651
   26      C       6.3939249366     0.8159293167     0.0389505618
   27      C       7.3391247789    -1.2054517651    -0.5460878310
   28      C       7.5975512850     0.0748470351    -0.2371749214
   29      H      -9.0726687216     1.8750778781    -0.1753312889
   30      H      -7.4856883718     2.8105873603    -1.8257770191
   31      H      -8.2766371053     0.2394741648     1.4971376979
   32      H      -5.1229684223     2.1203638248    -1.7928176520
   33      H      -5.9173470752    -0.4482608521     1.5292273800
   34      H      -3.1941144801     2.4332137219    -0.1784675582
   35      H       2.9606452544    -2.0001016304     0.1159726746
   36      H       6.7608104558     2.9367009805     0.5232030241
   37      H       8.0562618434    -1.9713399639    -0.7921372082
   38      H       8.5903972097     0.4954371307    -0.2033128271
 ----------------------------------------------------------------
 Molecular Point Group                 C1    NOp =  1
 Largest Abelian Subgroup              C1    NOp =  1
 Nuclear Repulsion Energy =  2866.3526123762 hartrees
 There are      111 alpha and      111 beta electrons
 Applying Cartesian multipole field
    Component          Value
    ---------          -----
     (2,0,0)        1.00000E-12
     (0,2,0)        2.00000E-11
     (0,0,2)       -3.00000E-11
 Nucleus-field energy     =     0.0000000553 hartrees
 Requested basis set is cc-pVTZ
 There are 348 shells and 996 basis functions
 A cutoff of  1.0D-11 yielded  28548 shell pairs
 There are    226000 function pairs (    295286 Cartesian)
 Smallest overlap matrix eigenvalue = 3.10E-05
 Guess MOs from SCF MO coefficient file
 Reading MOs from coefficient file
 Reading MOs from coefficient file
 Long-range K will be added via erf
 Coulomb attenuation parameter = 0.2 bohr**(-1)
 A restricted hybrid HF-DFT SCF calculation will be
 performed using Pulay DIIS extrapolation
 Exchange:     0.2220 Hartree-Fock + 1.0000 wB97X-D + LR-HF
 Correlation:  1.0000 wB97X-D
 Using SG-2 standard quadrature grid
 Dispersion:   Grimme D
 SCF converges when DIIS error is below 1.0E-08
 Geometry optimization detected.  Setting ReadMinima to 0
 Setting SaveMinima to 0
 using 16 threads for integral computing 
 using 16 threads for integral computing 
 K construction time:  CPU 1041.92 s  wall 67.84 s
 -------------------------------------------------------
 OpenMP BLAS3 based DFT computing Module                
 Release: version 1.0, May 2013, Q-Chem Inc. Pittsburgh 
 -------------------------------------------------------
 ---------------------------------------
  Cycle       Energy         DIIS Error
 ---------------------------------------
    1   -2579.8638387055      1.38E-04
 K construction time:  CPU 1046.58 s  wall 68.21 s
    2   -2579.8625169468      1.46E-05
 K construction time:  CPU 732.79 s  wall 47.82 s
    3   -2579.8625791537      9.56E-06
 K construction time:  CPU 686.94 s  wall 44.89 s
    4   -2579.8625879663      6.93E-06
 K construction time:  CPU 655.56 s  wall 42.80 s
    5   -2579.8625943257      2.17E-06
 K construction time:  CPU 594.86 s  wall 38.82 s
    6   -2579.8625950275      7.57E-07
 K construction time:  CPU 527.41 s  wall 34.34 s
    7   -2579.8625951068      2.11E-07
 K construction time:  CPU 481.09 s  wall 31.29 s
    8   -2579.8625951162      1.12E-07
 K construction time:  CPU 432.06 s  wall 28.05 s
    9   -2579.8625951179      3.44E-08
 K construction time:  CPU 361.22 s  wall 23.41 s
   10   -2579.8625951197      1.64E-08
 K construction time:  CPU 335.67 s  wall 21.69 s
   11   -2579.8625951188      6.14E-09 Convergence criterion met
 ---------------------------------------
 SCF time:  CPU 9350.42 s  wall 625.28 s
 SCF   energy in the final basis set = -2579.8625951188
 Total energy in the final basis set = -2579.8625951188
 
 --------------------------------------------------------------
 
                    Orbital Energies (a.u.)
 --------------------------------------------------------------
 
 Alpha MOs
 -- Occupied --
-89.149 -89.091 -89.086 -89.080 -14.485 -14.481 -14.453 -14.443
-10.364 -10.361 -10.357 -10.355 -10.344 -10.343 -10.335 -10.333
-10.331 -10.328 -10.324 -10.322 -10.314 -10.311 -10.306 -10.297
-10.295 -10.295 -10.295 -10.294  -8.159  -8.106  -8.101  -8.095
 -6.109  -6.103  -6.103  -6.055  -6.051  -6.050  -6.049  -6.047
 -6.044  -6.044  -6.040  -6.036  -1.145  -1.086  -1.064  -1.024
 -1.010  -0.974  -0.960  -0.924  -0.920  -0.898  -0.877  -0.860
 -0.855  -0.833  -0.829  -0.803  -0.775  -0.744  -0.734  -0.713
 -0.705  -0.693  -0.692  -0.661  -0.651  -0.637  -0.627  -0.614
 -0.606  -0.597  -0.571  -0.564  -0.557  -0.548  -0.541  -0.532
 -0.531  -0.524  -0.514  -0.513  -0.508  -0.504  -0.498  -0.487
 -0.478  -0.476  -0.469  -0.455  -0.449  -0.442  -0.436  -0.433
 -0.430  -0.424  -0.420  -0.399  -0.397  -0.374  -0.367  -0.362
 -0.358  -0.353  -0.339  -0.338  -0.325  -0.307  -0.270
 -- Virtual --
 -0.050  -0.002   0.029   0.043   0.053   0.057   0.064   0.071
  0.084   0.087   0.113   0.118   0.119   0.123   0.129   0.138
  0.139   0.144   0.153   0.156   0.159   0.164   0.171   0.177
  0.190   0.193   0.195   0.202   0.219   0.221   0.236   0.237
  0.245   0.251   0.263   0.268   0.276   0.283   0.289   0.294
  0.299   0.303   0.306   0.308   0.313   0.316   0.325   0.326
  0.328   0.331   0.335   0.340   0.346   0.348   0.351   0.355
  0.360   0.363   0.369   0.374   0.379   0.384   0.386   0.388
  0.389   0.394   0.395   0.400   0.403   0.408   0.410   0.412
  0.414   0.420   0.422   0.429   0.430   0.432   0.434   0.441
  0.443   0.445   0.450   0.454   0.456   0.464   0.465   0.466
  0.468   0.470   0.471   0.473   0.475   0.481   0.487   0.493
  0.493   0.496   0.501   0.505   0.505   0.510   0.512   0.516
  0.522   0.523   0.525   0.530   0.531   0.543   0.546   0.550
  0.555   0.560   0.563   0.565   0.567   0.573   0.578   0.579
  0.585   0.598   0.600   0.605   0.614   0.617   0.625   0.628
  0.630   0.636   0.637   0.648   0.651   0.652   0.659   0.664
  0.670   0.674   0.680   0.691   0.696   0.698   0.715   0.719
  0.721   0.723   0.730   0.733   0.738   0.743   0.746   0.755
  0.756   0.761   0.766   0.769   0.774   0.775   0.779   0.781
  0.790   0.795   0.796   0.801   0.805   0.812   0.819   0.820
  0.827   0.830   0.837   0.841   0.847   0.852   0.858   0.862
  0.869   0.872   0.873   0.881   0.885   0.891   0.896   0.898
  0.899   0.910   0.913   0.917   0.921   0.923   0.932   0.943
  0.944   0.946   0.953   0.956   0.956   0.963   0.970   0.976
  0.978   0.981   0.984   0.993   1.002   1.006   1.014   1.017
  1.022   1.031   1.038   1.044   1.051   1.052   1.055   1.057
  1.070   1.073   1.077   1.083   1.088   1.095   1.098   1.104
  1.107   1.119   1.121   1.129   1.135   1.137   1.148   1.151
  1.160   1.164   1.172   1.177   1.185   1.189   1.203   1.208
  1.210   1.219   1.222   1.227   1.236   1.240   1.251   1.253
  1.256   1.259   1.273   1.276   1.279   1.284   1.294   1.301
  1.314   1.320   1.326   1.336   1.340   1.350   1.359   1.364
  1.364   1.369   1.377   1.391   1.394   1.396   1.408   1.411
  1.414   1.422   1.428   1.434   1.439   1.444   1.447   1.451
  1.456   1.464   1.466   1.477   1.482   1.485   1.487   1.491
  1.493   1.498   1.516   1.517   1.520   1.538   1.543   1.549
  1.560   1.567   1.574   1.579   1.584   1.592   1.605   1.608
  1.612   1.616   1.623   1.630   1.636   1.641   1.651   1.656
  1.657   1.661   1.665   1.673   1.676   1.687   1.690   1.695
  1.697   1.711   1.715   1.721   1.728   1.737   1.743   1.750
  1.757   1.765   1.766   1.771   1.776   1.793   1.797   1.825
  1.826   1.833   1.838   1.845   1.858   1.870   1.885   1.890
  1.892   1.898   1.905   1.911   1.931   1.934   1.936   1.941
  1.951   1.955   1.967   1.974   1.984   1.990   1.994   2.010
  2.013   2.024   2.030   2.034   2.036   2.040   2.047   2.057
  2.072   2.081   2.083   2.093   2.098   2.109   2.115   2.122
  2.132   2.135   2.145   2.155   2.164   2.171   2.175   2.182
  2.194   2.204   2.210   2.211   2.216   2.232   2.239   2.245
  2.251   2.259   2.263   2.271   2.279   2.289   2.294   2.301
  2.319   2.324   2.331   2.333   2.339   2.349   2.358   2.361
  2.372   2.377   2.389   2.394   2.400   2.406   2.419   2.428
  2.431   2.436   2.446   2.451   2.456   2.470   2.471   2.478
  2.484   2.489   2.494   2.498   2.501   2.505   2.519   2.525
  2.533   2.536   2.541   2.556   2.557   2.567   2.571   2.584
  2.593   2.600   2.604   2.611   2.614   2.619   2.625   2.639
  2.648   2.655   2.662   2.675   2.677   2.690   2.697   2.714
  2.722   2.728   2.733   2.738   2.749   2.755   2.765   2.773
  2.774   2.778   2.784   2.786   2.789   2.799   2.806   2.810
  2.815   2.826   2.830   2.832   2.840   2.849   2.853   2.856
  2.868   2.876   2.876   2.891   2.899   2.903   2.910   2.915
  2.923   2.932   2.940   2.950   2.957   2.962   2.967   2.974
  2.981   2.989   2.994   2.996   2.999   3.007   3.009   3.018
  3.020   3.026   3.034   3.036   3.041   3.045   3.056   3.058
  3.065   3.067   3.073   3.077   3.081   3.082   3.095   3.096
  3.098   3.106   3.108   3.116   3.119   3.121   3.126   3.133
  3.138   3.139   3.149   3.151   3.153   3.162   3.165   3.168
  3.172   3.176   3.183   3.190   3.193   3.199   3.202   3.205
  3.208   3.214   3.216   3.221   3.226   3.227   3.239   3.244
  3.251   3.258   3.261   3.265   3.269   3.275   3.283   3.284
  3.288   3.289   3.295   3.299   3.303   3.307   3.313   3.318
  3.324   3.326   3.330   3.335   3.340   3.345   3.353   3.357
  3.365   3.369   3.373   3.381   3.387   3.393   3.397   3.404
  3.413   3.418   3.428   3.430   3.440   3.443   3.449   3.459
  3.460   3.462   3.469   3.472   3.477   3.482   3.484   3.492
  3.496   3.505   3.512   3.520   3.530   3.533   3.537   3.547
  3.559   3.564   3.568   3.572   3.573   3.581   3.583   3.597
  3.601   3.607   3.614   3.619   3.637   3.642   3.665   3.675
  3.686   3.696   3.699   3.708   3.716   3.723   3.733   3.741
  3.749   3.750   3.765   3.771   3.777   3.780   3.786   3.797
  3.805   3.809   3.816   3.833   3.836   3.840   3.852   3.856
  3.860   3.862   3.866   3.869   3.874   3.881   3.887   3.887
  3.892   3.899   3.907   3.922   3.934   3.939   3.944   3.949
  3.962   3.968   3.972   3.975   3.981   3.986   3.990   3.994
  3.998   4.010   4.013   4.030   4.033   4.041   4.056   4.070
  4.074   4.078   4.084   4.090   4.105   4.124   4.132   4.136
  4.141   4.154   4.161   4.164   4.170   4.178   4.184   4.192
  4.198   4.210   4.218   4.227   4.235   4.241   4.257   4.261
  4.271   4.274   4.280   4.287   4.301   4.317   4.321   4.324
  4.335   4.342   4.347   4.354   4.367   4.373   4.376   4.385
  4.391   4.394   4.403   4.416   4.422   4.426   4.431   4.433
  4.445   4.451   4.459   4.471   4.487   4.505   4.523   4.524
  4.526   4.539   4.554   4.564   4.575   4.582   4.596   4.601
  4.607   4.612   4.633   4.639   4.647   4.655   4.672   4.687
  4.691   4.723   4.729   4.746   4.753   4.771   4.779   4.786
  4.793   4.813   4.821   4.831   4.834   4.844   4.845   4.855
  4.862   4.866   4.883   4.891   4.897   4.906   4.925   4.935
  4.949   4.955   4.956   4.968   4.990   4.999   5.002   5.007
  5.028   5.043   5.053   5.067   5.076   5.084   5.089   5.093
  5.097   5.112   5.119   5.121   5.130   5.134   5.145   5.170
  5.189   5.194   5.215   5.243   5.248   5.250   5.267   5.271
  5.278   5.301   5.324   5.345   5.351   5.366   5.379   5.393
  5.400   5.432   5.447   5.468   5.509   5.520   5.524   5.539
  5.567   5.600   5.605   5.631   5.641   5.666   5.675   5.693
  5.731   5.737   5.768   5.797   5.821   5.841   5.858   5.874
  5.886   5.967   5.996   6.026   6.028   6.041   6.053   6.130
  6.153   6.160   6.191   6.214   6.225   6.239   6.274   6.313
  6.379   6.496   6.517   6.857   6.981   8.030   8.592   9.440
 10.157  10.723  11.127  11.159  11.754  12.017  12.313  12.620
 12.743  12.835  12.897  12.944  13.164  13.402  13.477  13.808
 13.843  13.957  14.277  14.672  15.707
 --------------------------------------------------------------
 
          Ground-State Mulliken Net Atomic Charges

     Atom                 Charge (a.u.)
  ----------------------------------------
      1 C                    -0.124368
      2 C                    -0.108913
      3 C                    -0.110058
      4 C                    -0.153225
      5 C                    -0.121273
      6 C                     0.122089
      7 C                     0.012964
      8 C                    -0.109548
      9 C                     0.034170
     10 N                    -0.174549
     11 N                    -0.280930
     12 C                    -0.012767
     13 C                     0.110849
     14 S                     0.411670
     15 N                    -0.222794
     16 C                    -0.008242
     17 N                    -0.140384
     18 S                     0.109850
     19 C                    -0.144531
     20 C                    -0.003275
     21 C                     0.007736
     22 S                     0.125167
     23 C                    -0.040491
     24 C                    -0.218726
     25 S                     0.053085
     26 C                     0.040401
     27 C                    -0.148930
     28 C                    -0.169020
     29 H                     0.118027
     30 H                     0.115380
     31 H                     0.115747
     32 H                     0.128946
     33 H                     0.114740
     34 H                     0.136105
     35 H                     0.143405
     36 H                     0.131147
     37 H                     0.132887
     38 H                     0.127660
  ----------------------------------------
  Sum of atomic charges =     0.000000

 -----------------------------------------------------------------
                    Cartesian Multipole Moments
 -----------------------------------------------------------------
    Charge (ESU x 10^10)
                 0.0000
    Dipole Moment (Debye)
         X       0.9321      Y       0.9781      Z       0.0586
       Tot       1.3524
    Quadrupole Moments (Debye-Ang)
        XX    -138.6237     XY      -0.0709     YY    -178.0946
        XZ      -1.7751     YZ      -2.0932     ZZ    -186.5975
    Octopole Moments (Debye-Ang^2)
       XXX     171.3899    XXY      49.1526    XYY      15.6958
       YYY     -22.2297    XXZ       2.5482    XYZ      40.0387
       YYZ      -5.5876    XZZ     -29.9818    YZZ      -6.0060
       ZZZ       4.4200
    Hexadecapole Moments (Debye-Ang^3)
      XXXX  -21225.8457   XXXY    -261.5676   XXYY   -4306.2649
      XYYY     181.6262   YYYY   -2887.4066   XXXZ    -238.3471
      XXYZ     -55.9282   XYYZ      67.7941   YYYZ       3.2734
      XXZZ   -4367.2032   XYZZ       7.1540   YYZZ    -572.2954
      XZZZ      25.4099   YZZZ      -6.9939   ZZZZ    -441.6940
 -----------------------------------------------------------------
 Calculating analytic gradient of the SCF energy
 K construction time:  CPU 2640.45 s  wall 166.93 s
 Gradient of SCF Energy
            1           2           3           4           5           6
    1   0.0000442  -0.0001061  -0.0001681  -0.0001002   0.0003273   0.0000306
    2  -0.0001709   0.0001796  -0.0000473  -0.0005729   0.0002267   0.0005704
    3  -0.0000316   0.0000002   0.0000784  -0.0005708   0.0003823   0.0007132
            7           8           9          10          11          12
    1  -0.0000236   0.0000160  -0.0000644  -0.0000032  -0.0003540   0.0001303
    2  -0.0001518   0.0001196  -0.0000697   0.0000773   0.0001417  -0.0003459
    3  -0.0012789   0.0012051  -0.0001685  -0.0003505   0.0000415   0.0001005
           13          14          15          16          17          18
    1  -0.0000551   0.0001880   0.0001866  -0.0001353   0.0002095  -0.0001615
    2  -0.0000972   0.0005217  -0.0002041   0.0000142   0.0000818  -0.0000079
    3   0.0004522   0.0000184  -0.0000481  -0.0004236  -0.0000889   0.0003099
           19          20          21          22          23          24
    1   0.0001213   0.0003458  -0.0004756   0.0001022   0.0001367  -0.0000183
    2  -0.0001309   0.0003381  -0.0000224   0.0000391  -0.0003155  -0.0002464
    3  -0.0005170   0.0007111  -0.0003921  -0.0001995   0.0002222  -0.0001084
           25          26          27          28          29          30
    1   0.0000797   0.0000514  -0.0000041  -0.0000479   0.0000097  -0.0000191
    2   0.0001433   0.0000112  -0.0000413   0.0000083   0.0001208  -0.0001176
    3  -0.0001053   0.0004146   0.0000251  -0.0002426   0.0000883   0.0000409
           31          32          33          34          35          36
    1   0.0000261  -0.0000077  -0.0000165   0.0000514  -0.0002777  -0.0000230
    2   0.0000511  -0.0001716  -0.0001154   0.0000227  -0.0000948   0.0001237
    3  -0.0000920  -0.0000755  -0.0002632  -0.0000865   0.0001912  -0.0000064
           37          38
    1   0.0000105  -0.0000057
    2   0.0000664   0.0000656
    3   0.0000157   0.0000388
 Max gradient component =       1.279E-03
 RMS gradient           =       2.778E-04
 Gradient time:  CPU 3081.55 s  wall 197.23 s
 Geometry Optimization Parameters
   NAtoms,    NIC,     NZ,  NCons,   NDum,   NFix, NCnnct, MaxDiis
       38     289       0       3       0       0       0       0

 Cartesian Hessian Update
 Hessian Updated using BFGS Update


** CONSTRAINED OPTIMIZATION IN DELOCALIZED INTERNAL COORDINATES **
   Searching for a Minimum

   Optimization Cycle:   3

                       Coordinates (Angstroms)
     ATOM                X               Y               Z
      1  C        -8.0334238426    1.5759570351   -0.1602993957
      2  C        -7.1436958317    2.1043312828   -1.0819298989
      3  C        -7.5859412097    0.6578239690    0.7780664491
      4  C        -5.8120506725    1.7230002120   -1.0592855438
      5  C        -6.2565532704    0.2734446916    0.8004698234
      6  C        -5.3512613250    0.8113880720   -0.1120650425
      7  C        -3.9230291142    0.4430613934   -0.0713096770
      8  C        -2.9320654938    1.3842216276   -0.1190913600
      9  C        -3.4704444264   -0.9024692934    0.0390746748
     10  N        -1.6002379428    1.1315660241   -0.0895885986
     11  N        -4.2279457609   -1.9995103292    0.1064455814
     12  C        -2.0671327581   -1.1861024085    0.0746422116
     13  C        -1.1484000363   -0.0893443661    0.0027690643
     14  S        -3.2074922120   -3.2408010094    0.2103025092
     15  N        -1.7923918998   -2.4869856630    0.1734798197
     16  C         0.3045906402   -0.2462093637    0.0336236148
     17  N         0.9590129465   -1.3650371726    0.0416249561
     18  S         1.3030548030    1.1766392694    0.0699814558
     19  C         2.2969088445   -1.1495193067    0.0842567079
     20  C         2.6978518785    0.1609182965    0.1117986791
     21  C         4.0489718075    0.6688443324    0.1462671516
     22  S         4.4062993335    2.3185038898    0.5281369004
     23  C         5.2269297527    0.0047427829   -0.0835223415
     24  C         6.0923378257    2.1074586491    0.3682571680
     25  S         5.6399645901   -1.6259882019   -0.5316419651
     26  C         6.3939249366    0.8159293167    0.0389505618
     27  C         7.3391247789   -1.2054517651   -0.5460878310
     28  C         7.5975512850    0.0748470351   -0.2371749214
     29  H        -9.0726687216    1.8750778781   -0.1753312889
     30  H        -7.4856883718    2.8105873603   -1.8257770191
     31  H        -8.2766371053    0.2394741648    1.4971376979
     32  H        -5.1229684223    2.1203638248   -1.7928176520
     33  H        -5.9173470752   -0.4482608521    1.5292273800
     34  H        -3.1941144801    2.4332137219   -0.1784675582
     35  H         2.9606452544   -2.0001016304    0.1159726746
     36  H         6.7608104558    2.9367009805    0.5232030241
     37  H         8.0562618434   -1.9713399639   -0.7921372082
     38  H         8.5903972097    0.4954371307   -0.2033128271
   Point Group: c1    Number of degrees of freedom:   108


   Energy is  -2579.862595119

              Constraints and their Current Values
                                        Value     Constraint
   Dihedral:        4   6   7   8       47.062       47.062
   Dihedral:       10  13  16  18        4.632        4.632
   Dihedral:       18  20  21  22       15.000       15.000
 Hessian Updated using BFGS Update

 98 Hessian modes will be used to form the next step
  Hessian Eigenvalues:
     0.019099    0.045000    0.045000    0.045000    0.045000    0.045001
     0.045001    0.045001    0.045002    0.045002    0.045002    0.045003
     0.045003    0.045004    0.045005    0.045006    0.045007    0.045007
[...]
     32  H        -5.1137430306    2.1335678004   -1.7768087601
     33  H        -5.9266258568   -0.4475653397    1.5322105714
     34  H        -3.1946756004    2.4352424152   -0.1677426309
     35  H         2.9631804480   -1.9961789407    0.1122002953
     36  H         6.7661580021    2.9315522361    0.5310773056
     37  H         8.0526343500   -1.9748277702   -0.8000971086
     38  H         8.5919180461    0.4888226703   -0.2048885683
   Point Group: c1    Number of degrees of freedom:   108


   Energy is  -2579.862617020

              Constraints and their Current Values
                                        Value     Constraint
   Dihedral:        4   6   7   8       47.062       47.062
   Dihedral:       10  13  16  18        4.632        4.632
   Dihedral:       18  20  21  22       15.000       15.000
 Hessian Updated using BFGS Update

105 Hessian modes will be used to form the next step
  Hessian Eigenvalues:
     0.014361    0.022977    0.045000    0.045000    0.045000    0.045000
     0.045000    0.045000    0.045000    0.045000    0.045001    0.045001
     0.045001    0.045001    0.045002    0.045002    0.045002    0.045003
     0.045003    0.045005    0.045005    0.045006    0.045007    0.045009
     0.045015    0.045022    0.045023    0.045033    0.045041    0.045189
     0.045530    0.046844    0.157350    0.159808    0.159980    0.159985
     0.159989    0.159992    0.159999    0.160093    0.160226    0.160600
     0.219997    0.220084    0.226006    0.233068    0.234461    0.235217
     0.236985    0.246820    0.248560    0.249516    0.249842    0.249894
     0.249967    0.249985    0.249993    0.249996    0.250303    0.270381
     0.277973    0.295526    0.305529    0.308962    0.316162    0.324311
     0.337479    0.348667    0.350913    0.356845    0.357320    0.357365
     0.357627    0.358244    0.358500    0.360520    0.361604    0.362607
     0.365239    0.366152    0.383833    0.388142    0.390151    0.395526
     0.412903    0.429676    0.434998    0.441521    0.470711    0.474195
     0.475342    0.480046    0.483103    0.484351    0.485435    0.489417
     0.501391    0.507570    0.519685    0.526560    0.544629    0.557999
     0.637562    0.653159    0.662556

 Minimum Search - Taking Simple RFO Step
 Searching for Lamda that Minimizes Along All modes
 Value Taken    Lamda =   0.00000000
 Step Taken.  Stepsize is  0.004969

                             Maximum     Tolerance    Cnvgd?
         Gradient           0.000059      0.000300     YES
         Displacement       0.001820      0.001200      NO
         Energy change     -0.000001      0.000001     YES

 Final energy is   -2579.86261701962     


 ******************************
 **  OPTIMIZATION CONVERGED  **
 ******************************

                       Coordinates (Angstroms)
     ATOM                X               Y               Z
      1  C        -8.0367504548    1.5676844383   -0.1755499429
      2  C        -7.1404350679    2.1036816792   -1.0862805783
      3  C        -7.5930123253    0.6503714789    0.7654424297
      4  C        -5.8074125911    1.7287277319   -1.0517125136
      5  C        -6.2622495909    0.2719533597    0.7993977381
      6  C        -5.3507449601    0.8161404675   -0.1032363690
      7  C        -3.9231864389    0.4453526568   -0.0622310438
      8  C        -2.9320328459    1.3863230242   -0.1101397639
      9  C        -3.4705592864   -0.9002057275    0.0495381202
     10  N        -1.6000192371    1.1343997099   -0.0816535031
     11  N        -4.2267461790   -1.9981382903    0.1163201360
     12  C        -2.0670910123   -1.1825988866    0.0854382459
     13  C        -1.1479197884   -0.0861234156    0.0118734383
     14  S        -3.2059877770   -3.2390687021    0.2210655443
     15  N        -1.7917526938   -2.4832254865    0.1850364591
     16  C         0.3052872004   -0.2434931629    0.0373853141
     17  N         0.9591477609   -1.3626968578    0.0464188671
     18  S         1.3043954249    1.1792748469    0.0663446299
     19  C         2.2973414694   -1.1470252105    0.0833129797
     20  C         2.6985135649    0.1631638245    0.1039526691
     21  C         4.0503865865    0.6705869321    0.1416134925
     22  S         4.4096423309    2.3178668846    0.5314919226
     23  C         5.2269949441    0.0064989800   -0.0928497749
     24  C         6.0955924796    2.1054195016    0.3695334440
     25  S         5.6368916775   -1.6245391958   -0.5434922007
     26  C         6.3952501004    0.8151075644    0.0329570665
     27  C         7.3369032070   -1.2074546225   -0.5543031993
     28  C         7.5978191523    0.0715348225   -0.2418590354
     29  H        -9.0780833823    1.8584292910   -0.2022383735
     30  H        -7.4779346146    2.8112759525   -1.8311279796
     31  H        -8.2879457980    0.2265749550    1.4774486531
     32  H        -5.1137430306    2.1335678004   -1.7768087601
     33  H        -5.9266258568   -0.4475653397    1.5322105714
     34  H        -3.1946756004    2.4352424152   -0.1677426309
     35  H         2.9631804480   -1.9961789407    0.1122002953
     36  H         6.7661580021    2.9315522361    0.5310773056
     37  H         8.0526343500   -1.9748277702   -0.8000971086
     38  H         8.5919180461    0.4888226703   -0.2048885683

Z-matrix Print:
$molecule
0 1
S 
C  1 1.725532
C  2 1.370387 1 109.035530
H  3 1.079462 2 124.828032 1 179.149825 0
N  3 1.355964 2 116.192237 1 0.306005 0
C  5 1.296238 3 111.141794 2 -0.020123 0
C  2 1.444457 1 123.357024 3 -179.622542 0
C  7 1.371274 2 128.936634 1 165.544756 0
C  8 1.426357 7 114.402970 2 179.836914 0
C  9 1.366742 8 112.169466 7 -0.130624 0
H  10 1.076220 9 128.686118 8 -179.987987 0
C  9 1.440346 8 111.983898 7 179.195362 0
H  12 1.078763 9 124.274415 8 -179.962018 0
C  12 1.342204 9 111.965258 8 -0.113173 0
H  14 1.077751 12 127.047158 9 179.892057 0
C  6 1.461926 5 126.476043 3 179.431050 0
N  16 1.304921 6 116.508166 5 175.662941 0
C  17 1.355927 16 121.039627 6 179.864029 0
H  18 1.082835 17 114.794568 16 -178.730364 0
C  18 1.367518 17 125.691597 16 0.733948 0
C  20 1.424040 18 114.995292 17 -1.104612 0
N  21 1.334816 20 126.946290 18 -179.913219 0
C  21 1.432047 20 119.986720 18 0.821039 0
N  23 1.333177 21 113.369552 20 179.678162 0
C  20 1.475496 18 121.826418 17 179.803713 0
C  25 1.393186 20 120.044046 18 -47.061880 0
H  26 1.082052 25 119.416329 20 -2.162506 0
C  26 1.385184 25 120.646769 20 178.849774 0
H  28 1.081385 26 119.647250 25 179.835614 0
C  28 1.385678 26 120.091122 25 0.223005 0
H  30 1.081489 28 120.173216 26 179.912890 0
C  30 1.387023 28 119.654803 26 0.291203 0
H  32 1.081429 30 120.017397 28 179.853028 0
C  32 1.383937 30 120.338799 28 -0.127935 0
H  34 1.080447 32 119.830332 30 179.645824 0
S  24 1.603951 23 106.219100 21 -0.190182 0
S  10 1.706983 9 110.941301 8 -0.132815 0
S  8 1.741086 7 134.421816 2 -1.371323 0
$end

 
 --------------------------------------------------------------
 
                    Orbital Energies (a.u.)
 --------------------------------------------------------------
 
 Alpha MOs
 -- Occupied --
-89.149 -89.091 -89.086 -89.080 -14.485 -14.481 -14.453 -14.443
-10.364 -10.361 -10.357 -10.355 -10.344 -10.343 -10.335 -10.333
-10.331 -10.328 -10.324 -10.322 -10.314 -10.311 -10.306 -10.297
-10.295 -10.295 -10.295 -10.294  -8.159  -8.106  -8.101  -8.094
 -6.109  -6.103  -6.103  -6.055  -6.051  -6.050  -6.049  -6.047
 -6.044  -6.044  -6.040  -6.036  -1.145  -1.086  -1.064  -1.024
 -1.009  -0.974  -0.960  -0.925  -0.920  -0.898  -0.877  -0.860
 -0.855  -0.833  -0.829  -0.803  -0.775  -0.744  -0.734  -0.712
 -0.705  -0.693  -0.692  -0.661  -0.651  -0.637  -0.627  -0.614
 -0.606  -0.597  -0.571  -0.563  -0.557  -0.548  -0.541  -0.532
 -0.531  -0.524  -0.514  -0.513  -0.508  -0.504  -0.498  -0.487
 -0.478  -0.476  -0.469  -0.455  -0.449  -0.442  -0.436  -0.433
 -0.430  -0.424  -0.420  -0.399  -0.397  -0.374  -0.367  -0.362
 -0.358  -0.353  -0.339  -0.338  -0.325  -0.307  -0.270
 -- Virtual --
 -0.050  -0.002   0.029   0.043   0.053   0.057   0.064   0.071
  0.084   0.087   0.113   0.118   0.119   0.123   0.129   0.138
  0.139   0.144   0.153   0.156   0.159   0.163   0.171   0.177
  0.189   0.194   0.195   0.202   0.219   0.221   0.236   0.237
  0.245   0.251   0.263   0.268   0.276   0.283   0.289   0.295
  0.299   0.303   0.306   0.308   0.313   0.316   0.325   0.326
  0.328   0.331   0.335   0.340   0.346   0.348   0.352   0.355
  0.360   0.363   0.369   0.374   0.379   0.384   0.386   0.388
  0.389   0.394   0.395   0.400   0.403   0.408   0.410   0.412
  0.414   0.420   0.422   0.429   0.430   0.432   0.434   0.441
  0.443   0.446   0.450   0.454   0.456   0.464   0.465   0.466
  0.468   0.470   0.471   0.473   0.475   0.481   0.487   0.493
  0.493   0.496   0.501   0.504   0.505   0.510   0.512   0.517
  0.521   0.523   0.525   0.530   0.531   0.543   0.546   0.550
  0.555   0.560   0.563   0.565   0.567   0.573   0.578   0.579
  0.585   0.598   0.600   0.605   0.614   0.617   0.625   0.628
  0.631   0.636   0.637   0.648   0.651   0.652   0.660   0.664
  0.670   0.674   0.680   0.691   0.696   0.698   0.715   0.719
  0.721   0.723   0.730   0.734   0.738   0.743   0.745   0.755
  0.756   0.761   0.766   0.769   0.773   0.775   0.779   0.781
  0.790   0.794   0.796   0.801   0.805   0.812   0.819   0.820
  0.827   0.830   0.837   0.841   0.847   0.852   0.858   0.862
  0.869   0.872   0.873   0.881   0.885   0.890   0.896   0.898
  0.899   0.910   0.913   0.918   0.921   0.923   0.932   0.943
  0.944   0.946   0.953   0.956   0.956   0.963   0.970   0.976
  0.978   0.981   0.984   0.993   1.002   1.005   1.014   1.017
  1.022   1.031   1.038   1.044   1.051   1.052   1.055   1.057
  1.070   1.073   1.077   1.083   1.088   1.095   1.098   1.104
  1.107   1.119   1.121   1.129   1.135   1.137   1.148   1.151
  1.160   1.165   1.171   1.176   1.185   1.189   1.203   1.208
  1.209   1.219   1.222   1.227   1.236   1.240   1.251   1.252
  1.256   1.259   1.273   1.276   1.278   1.284   1.293   1.301
  1.314   1.320   1.326   1.336   1.340   1.350   1.359   1.364
  1.364   1.369   1.377   1.391   1.394   1.396   1.409   1.411
  1.414   1.422   1.428   1.433   1.439   1.444   1.447   1.452
  1.456   1.464   1.466   1.477   1.482   1.486   1.488   1.491
  1.493   1.498   1.516   1.516   1.520   1.538   1.543   1.549
  1.560   1.567   1.574   1.579   1.583   1.592   1.604   1.608
  1.612   1.616   1.623   1.629   1.636   1.640   1.651   1.656
  1.657   1.662   1.665   1.673   1.676   1.687   1.691   1.695
  1.698   1.711   1.715   1.721   1.728   1.736   1.743   1.749
  1.757   1.765   1.766   1.771   1.776   1.793   1.796   1.824
  1.826   1.832   1.838   1.845   1.858   1.870   1.885   1.890
  1.891   1.898   1.905   1.910   1.931   1.934   1.936   1.941
  1.951   1.956   1.967   1.974   1.984   1.990   1.994   2.009
  2.013   2.024   2.030   2.034   2.036   2.040   2.047   2.057
  2.072   2.081   2.083   2.093   2.098   2.109   2.115   2.123
  2.132   2.135   2.145   2.155   2.164   2.171   2.175   2.182
  2.194   2.203   2.210   2.211   2.216   2.232   2.239   2.245
  2.251   2.259   2.263   2.271   2.280   2.289   2.294   2.301
  2.319   2.324   2.331   2.333   2.339   2.350   2.358   2.361
  2.373   2.377   2.389   2.394   2.400   2.406   2.419   2.427
  2.432   2.436   2.446   2.450   2.457   2.470   2.470   2.478
  2.483   2.489   2.494   2.497   2.501   2.505   2.519   2.525
  2.532   2.535   2.541   2.556   2.557   2.567   2.571   2.584
  2.594   2.600   2.605   2.611   2.614   2.619   2.626   2.639
  2.648   2.655   2.661   2.674   2.678   2.690   2.697   2.714
  2.721   2.728   2.733   2.738   2.749   2.756   2.765   2.772
  2.774   2.779   2.784   2.786   2.789   2.799   2.806   2.810
  2.815   2.826   2.830   2.832   2.840   2.849   2.852   2.855
  2.868   2.875   2.876   2.890   2.899   2.903   2.910   2.915
  2.923   2.932   2.941   2.950   2.956   2.962   2.967   2.974
  2.981   2.989   2.994   2.996   2.999   3.007   3.010   3.018
  3.020   3.025   3.034   3.036   3.041   3.044   3.055   3.059
  3.065   3.068   3.073   3.077   3.080   3.082   3.094   3.096
  3.098   3.105   3.108   3.116   3.119   3.121   3.126   3.133
  3.138   3.140   3.149   3.152   3.153   3.162   3.164   3.168
  3.173   3.176   3.183   3.190   3.193   3.199   3.202   3.205
  3.208   3.214   3.217   3.221   3.226   3.227   3.239   3.244
  3.251   3.258   3.261   3.265   3.269   3.275   3.283   3.285
  3.288   3.289   3.295   3.299   3.302   3.307   3.312   3.318
  3.324   3.326   3.331   3.335   3.340   3.344   3.353   3.357
  3.365   3.369   3.373   3.381   3.387   3.393   3.397   3.404
  3.413   3.418   3.428   3.430   3.440   3.443   3.449   3.459
  3.460   3.462   3.468   3.472   3.477   3.481   3.484   3.492
  3.496   3.505   3.512   3.520   3.530   3.533   3.537   3.547
  3.559   3.564   3.568   3.571   3.573   3.582   3.583   3.597
  3.601   3.607   3.614   3.619   3.636   3.643   3.666   3.674
  3.687   3.696   3.699   3.707   3.716   3.722   3.733   3.741
  3.748   3.750   3.765   3.770   3.777   3.780   3.786   3.797
  3.805   3.809   3.815   3.834   3.836   3.840   3.852   3.855
  3.860   3.862   3.866   3.869   3.875   3.881   3.886   3.887
  3.892   3.899   3.907   3.922   3.934   3.939   3.944   3.949
  3.962   3.968   3.971   3.975   3.980   3.985   3.989   3.994
  3.998   4.011   4.012   4.030   4.034   4.041   4.055   4.070
  4.074   4.078   4.084   4.090   4.105   4.124   4.133   4.136
  4.141   4.155   4.161   4.164   4.170   4.178   4.184   4.192
  4.197   4.211   4.218   4.227   4.235   4.241   4.257   4.261
  4.271   4.274   4.280   4.287   4.301   4.318   4.321   4.324
  4.334   4.342   4.347   4.355   4.367   4.373   4.377   4.385
  4.391   4.394   4.402   4.415   4.422   4.427   4.431   4.433
  4.445   4.451   4.459   4.470   4.486   4.505   4.523   4.524
  4.526   4.539   4.554   4.564   4.575   4.582   4.596   4.601
  4.607   4.612   4.633   4.639   4.647   4.654   4.672   4.687
  4.691   4.723   4.729   4.746   4.753   4.771   4.779   4.786
  4.793   4.813   4.821   4.831   4.834   4.844   4.845   4.855
  4.862   4.866   4.882   4.891   4.897   4.906   4.925   4.935
  4.950   4.955   4.956   4.968   4.990   4.999   5.003   5.007
  5.028   5.043   5.053   5.067   5.076   5.084   5.090   5.094
  5.097   5.111   5.119   5.121   5.130   5.134   5.144   5.169
  5.189   5.194   5.215   5.244   5.248   5.250   5.267   5.271
  5.278   5.302   5.324   5.345   5.351   5.367   5.379   5.394
  5.400   5.431   5.448   5.469   5.508   5.520   5.525   5.538
  5.567   5.600   5.604   5.631   5.641   5.666   5.675   5.693
  5.731   5.737   5.768   5.797   5.821   5.841   5.857   5.874
  5.886   5.967   5.996   6.026   6.029   6.041   6.053   6.130
  6.153   6.159   6.191   6.214   6.224   6.239   6.273   6.312
  6.379   6.495   6.518   6.857   6.981   8.028   8.592   9.440
 10.155  10.724  11.128  11.156  11.750  12.017  12.315  12.621
 12.741  12.838  12.901  12.946  13.164  13.400  13.482  13.804
 13.842  13.955  14.277  14.673  15.707
 --------------------------------------------------------------
 
          Ground-State Mulliken Net Atomic Charges

     Atom                 Charge (a.u.)
  ----------------------------------------
      1 C                    -0.124459
      2 C                    -0.109016
      3 C                    -0.109973
      4 C                    -0.152622
      5 C                    -0.120874
      6 C                     0.121425
      7 C                     0.013483
      8 C                    -0.110099
      9 C                     0.033997
     10 N                    -0.174563
     11 N                    -0.280873
     12 C                    -0.012461
     13 C                     0.110554
     14 S                     0.411831
     15 N                    -0.222916
     16 C                    -0.008288
     17 N                    -0.140467
     18 S                     0.109827
     19 C                    -0.143304
     20 C                    -0.003640
     21 C                     0.006973
     22 S                     0.125223
     23 C                    -0.039581
     24 C                    -0.218568
     25 S                     0.052920
     26 C                     0.039920
     27 C                    -0.148717
     28 C                    -0.169260
     29 H                     0.118065
     30 H                     0.115230
     31 H                     0.115674
     32 H                     0.128855
     33 H                     0.114538
     34 H                     0.136224
     35 H                     0.143228
     36 H                     0.131114
     37 H                     0.132886
     38 H                     0.127713
  ----------------------------------------
  Sum of atomic charges =     0.000000

 -----------------------------------------------------------------
                    Cartesian Multipole Moments
 -----------------------------------------------------------------
    Charge (ESU x 10^10)
                 0.0000
    Dipole Moment (Debye)
         X       0.9310      Y       0.9667      Z       0.0599
       Tot       1.3435
    Quadrupole Moments (Debye-Ang)
        XX    -138.5791     XY      -0.0345     YY    -178.1005
        XZ      -1.6644     YZ      -2.0700     ZZ    -186.6236
    Octopole Moments (Debye-Ang^2)
       XXX     170.5403    XXY      47.8534    XYY      15.6511
       YYY     -22.8810    XXZ       2.1440    XYZ      40.4870
       YYZ      -5.6933    XZZ     -29.7033    YZZ      -6.1579
       ZZZ       4.2008
    Hexadecapole Moments (Debye-Ang^3)
      XXXX  -21219.3388   XXXY    -255.3033   XXYY   -4309.5134
      XYYY     180.0798   YYYY   -2884.6726   XXXZ    -219.9947
      XXYZ     -55.6288   XYYZ      70.6180   YYYZ       5.0491
      XXZZ   -4369.3718   XYZZ       7.0534   YYZZ    -571.7292
      XZZZ      32.7817   YZZZ      -5.1882   ZZZZ    -443.0444
 -----------------------------------------------------------------
Archival summary:
1\1\mn74\OPT\ProcedureUnspecified\BasisUnspecified\442010\afmv_a\ThuJun805:19:562017ThuJun805:19:562017\0\\#,OPT,ProcedureUnspecified,BasisUnspecified,\\0,1\S\C,1,1.72553\C,2,1.37039,1,109.036\H,3,1.07946,2,124.828,1,179.15,0\N,3,1.35596,2,116.192,1,0.306005,0\C,5,1.29624,3,111.142,2,-0.0201234,0\C,2,1.44446,1,123.357,3,-179.623,0\C,7,1.37127,2,128.937,1,165.545,0\C,8,1.42636,7,114.403,2,179.837,0\C,9,1.36674,8,112.169,7,-0.130624,0\H,10,1.07622,9,128.686,8,-179.988,0\C,9,1.44035,8,111.984,7,179.195,0\H,12,1.07876,9,124.274,8,-179.962,0\C,12,1.3422,9,111.965,8,-0.113173,0\H,14,1.07775,12,127.047,9,179.892,0\C,6,1.46193,5,126.476,3,179.431,0\N,16,1.30492,6,116.508,5,175.663,0\C,17,1.35593,16,121.04,6,179.864,0\H,18,1.08283,17,114.795,16,-178.73,0\C,18,1.36752,17,125.692,16,0.733948,0\C,20,1.42404,18,114.995,17,-1.10461,0\N,21,1.33482,20,126.946,18,-179.913,0\C,21,1.43205,20,119.987,18,0.821039,0\N,23,1.33318,21,113.37,20,179.678,0\C,20,1.4755,18,121.826,17,179.804,0\C,25,1.39319,20,120.044,18,-47.0619,0\H,26,1.08205,25,119.416,20,-2.16251,0\C,26,1.38518,25,120.647,20,178.85,0\H,28,1.08138,26,119.647,25,179.836,0\C,28,1.38568,26,120.091,25,0.223005,0\H,30,1.08149,28,120.173,26,179.913,0\C,30,1.38702,28,119.655,26,0.291203,0\H,32,1.08143,30,120.017,28,179.853,0\C,32,1.38394,30,120.339,28,-0.127935,0\H,34,1.08045,32,119.83,30,179.646,0\S,24,1.60395,23,106.219,21,-0.190182,0\S,10,1.70698,9,110.941,8,-0.132815,0\S,8,1.74109,7,134.422,2,-1.37132,0\\\@

 Total job time:  5017.60s(wall), 75762.37s(cpu) 
 Thu Jun  8 05:19:57 2017

        *************************************************************
        *                                                           *
        *  Thank you very much for using Q-Chem.  Have a nice day.  *
        *                                                           *
        *************************************************************


