
Running Job 1 of 1 ./9/22.qcin
qchem ./9/22.qcin_63813.0 /tmpu/cab_g/afmv_a/scratch_qchem/qchem63813/ 1
/tmpu/appuserlic/qchem4.4/serial-multicore/exe/qcprog.exe_s ./9/22.qcin_63813.0 /tmpu/cab_g/afmv_a/scratch_qchem/qchem63813/
Check license passed

                  Welcome to Q-Chem
     A Quantum Leap Into The Future Of Chemistry


 Q-Chem 4.4, Q-Chem, Inc., Pleasanton, CA (2016)

 Y. Shao,  Z. Gan,  E. Epifanovsky,  A. T. B. Gilbert,  M. Wormit,  
 J. Kussmann,  A. W. Lange,  A. Behn,  J. Deng,  X. Feng,  D. Ghosh,  
 M. Goldey,  P. R. Horn,  L. D. Jacobson,  I. Kaliman,  F. Rob,  
 R. Z. Khaliullin,  T. Kus,  A. Landau,  J. Liu,  E. I. Proynov,  Y. M. Rhee,  
 R. M. Richard,  M. A. Rohrdanz,  R. P. Steele,  E. J. Sundstrom,  
 H. L. Woodcock III,  P. M. Zimmerman,  D. Zuev,  B. Albrecht,  E. Alguire,  
 B. Austin,  S. A. Baeppler,  G. J. O. Beran,  Y. A. Bernard,  E. Berquist,  
 K. Brandhorst,  K. B. Bravaya,  S. T. Brown,  D. Casanova,  C.-M. Chang,  
 Y. Chen,  S. H. Chien,  K. D. Closser,  M. P. Coons,  D. L. Crittenden,  
 S. Dasgupta,  M. Diedenhofen,  R. A. DiStasio Jr.,  H. Do,  A. D. Dutoi,  
 R. G. Edgar,  P.-T. Fang,  S. Fatehi,  Q. Feng,  L. Fusti-Molnar,  
 A. Ghysels,  A. Golubeva-Zadorozhnaya,  J. Gomes,  A. Gunina,  
 M. W. D. Hanson-Heine,  P. H. P. Harbach,  A. W. Hauser,  J. E. Herr,  
 E. G. Hohenstein,  Z. C. Holden,  K. Hui,  T.-C. Jagau,  H. Ji,  B. Kaduk,  
 K. Khistyaev,  Jaehoon Kim,  Jihan Kim,  R. A. King,  P. Klunzinger,  
 K. Koh,  D. Kosenkov,  T. Kowalczyk,  C. M. Krauter,  A. Kunitsa,  
 K. U. Lao,  A. Laurent,  K. V. Lawler,  J. Lee,  D. Lefrancois,  S. Lehtola,  
 S. V. Levchenko,  C. Y. Lin,  Y.-S. Lin,  F. Liu,  E. Livshits,  
 R. C. Lochan,  A. Luenser,  P. Manohar,  S. F. Manzer,  S.-P. Mao,  Y. Mao,  
 N. Mardirossian,  A. V. Marenich,  L. A. Martinez-Martinez,  S. A. Maurer,  
 N. J. Mayhall,  J.-M. Mewes,  A. F. Morrison,  K. Nanda,  T. S. Nguyen-Beck,  
 C. M. Oana,  R. Olivares-Amaya,  D. P. O'Neill,  J. A. Parkhill,  
 T. M. Perrine,  R. Peverati,  P. A. Pieniazek,  F. Plasser,  A. Prociuk,  
 D. R. Rehn,  E. Rosta,  N. J. Russ,  N. Sergueev,  S. M. Sharada,  
 S. Sharma,  D. W. Small,  A. Sodt,  T. Stauch,  T. Stein,  D. Stuck,  
 Y.-C. Su,  A. J. W. Thom,  T. Tsuchimochi,  L. Vogt,  O. Vydrov,  T. Wang,  
 M. A. Watson,  J. Wenzel,  A. White,  C. F. Williams,  V. Vanovschi,  
 K. Yao,  S. Yeganeh,  S. R. Yost,  Z.-Q. You,  I. Y. Zhang,  X. Zhang,  
 Y. Zhao,  B. R. Brooks,  G. K. L. Chan,  D. M. Chipman,  C. J. Cramer,  
 W. A. Goddard III,  M. S. Gordon,  W. J. Hehre,  A. Klamt,  
 H. F. Schaefer III,  M. W. Schmidt,  C. D. Sherrill,  D. G. Truhlar,  
 A. Warshel,  X. Xu,  A. Aspuru-Guzik,  R. Baer,  A. T. Bell,  N. A. Besley,  
 J.-D. Chai,  A. Dreuw,  B. D. Dunietz,  T. R. Furlani,  S. R. Gwaltney,  
 C.-P. Hsu,  Y. Jung,  J. Kong,  D. S. Lambrecht,  W. Liang,  C. Ochsenfeld,  
 V. A. Rassolov,  L. V. Slipchenko,  J. E. Subotnik,  T. Van Voorhis,  
 J. M. Herbert,  A. I. Krylov,  P. M. W. Gill,  M. Head-Gordon

 Contributors to earlier versions of Q-Chem not listed above: 
 R. D. Adamson,  J. Baker,  E. F. C. Byrd,  A. K. Chakraborty,  C.-L. Cheng,  
 H. Dachsel,  R. J. Doerksen,  G. Hawkins,  A. Heyden,  S. Hirata,  
 G. Kedziora,  F. J. Keil,  C. Kelley,  P. P. Korambath,  W. Kurlancheek,  
 A. M. Lee,  M. S. Lee,  D. Liotard,  I. Lotan,  P. E. Maslen,  N. Nair,  
 D. Neuhauser,  R. Olson,  B. Peters,  J. Ritchie,  N. E. Schultz,  
 N. Shenvi,  A. C. Simmonett,  K. S. Thanthiriwatte,  Q. Wu,  W. Zhang

 Please cite Q-Chem as follows:
 Y. Shao et al., Mol. Phys. 113, 184-215 (2015)
 DOI: 10.1080/00268976.2014.952696

 Q-Chem 4.4.2 for Intel X86 Linux

 Parts of Q-Chem use Armadillo 5.200.1 (Boston Tea Smuggler).
 http://arma.sourceforge.net/

 Q-Chem begins on Fri Oct 12 01:40:38 2018  

Host: 
0

     Scratch files written to /tmpu/cab_g/afmv_a/scratch_qchem/qchem63813//
 Dec716 11556_ 22328  22283 4050   
Processing $rem in /tmpu/appuserlic/qchem4.4/serial-multicore/config/preferences.
 MEM_TOTAL  2000 
FILE_GEOM_ORG=        593

Checking the input file for inconsistencies... 	...done.

--------------------------------------------------------------
User input:
--------------------------------------------------------------
$comment
SP
$end

$rem
MEM_STATIC 5000
MEM_TOTAL 20000
JOBTYPE SP
EXCHANGE B3LYP
BASIS 6-31g(d,p)
$end

$molecule
0 1
C          -4.711000     18.406000      7.746000
C          -5.178000     17.279000      8.390000
N          -5.454000     19.490000      7.501000
C          -6.519000     17.276000      8.964000
C          -6.650000     19.515000      8.156000
C          -7.258000     18.516000      8.967000
C          -8.526000     18.645000      9.709000
C          -9.492000     17.636000      9.927000
C          -8.697000     19.832000     10.401000
N         -10.638000     17.851000     10.616000
N          -7.765000     20.873000     10.441000
C          -9.727000     19.893000     11.337000
C         -10.757000     18.971000     11.345000
S          -8.266000     21.807000     11.757000
N          -9.640000     20.959000     12.087000
C         -11.927000     19.140000     12.312000
S         -11.901000     20.168000     13.777000
C         -13.199000     18.626000     12.044000
C         -13.642000     20.005000     13.986000
S         -13.864000     17.594000     10.756000
C         -14.131000     19.144000     12.948000
C         -14.403000     20.438000     15.153000
C         -15.411000     17.699000     11.608000
C         -15.409000     18.608000     12.668000
N         -15.690000     20.797000     14.942000
S         -13.648000     20.799000     16.731000
C         -16.149000     21.325000     16.134000
C         -15.237000     21.366000     17.201000
C          -3.312000     18.368000      7.222000
H          -4.599000     16.391000      8.628000
H          -6.906000     16.407000      9.487000
H          -7.278000     20.374000      7.926000
H          -9.457000     16.738000      9.312000
H         -16.258000     17.231000     11.125000
H         -16.236000     18.730000     13.358000
H         -17.136000     21.738000     16.295000
H         -15.251000     21.766000     18.206000
H          -3.136000     17.305000      7.016000
C          -2.234000     19.057000      8.058000
H          -3.284000     18.792000      6.211000
H          -2.423000     20.132000      8.177000
H          -1.346000     18.999000      7.416000
C          -2.103000     18.404000      9.490000
H          -3.016000     18.596000     10.068000
C          -0.884000     18.889000     10.237000
H          -2.271000     17.326000      9.376000
H          -1.104000     19.916000     10.552000
H          -0.062000     19.032000      9.525000
C          -0.504000     17.868000     11.331000
H          -1.172000     18.004000     12.191000
C           0.987000     17.970000     11.768000
H          -0.577000     16.804000     11.078000
H           1.671000     17.692000     10.957000
H           1.307000     17.204000     12.484000
H           1.223000     19.022000     11.971000
C         -13.658000     24.323000     16.343000
C         -14.727000     24.226000     15.467000
N         -12.363000     24.237000     15.930000
C         -14.400000     24.044000     14.060000
C         -12.084000     24.127000     14.661000
C         -13.046000     24.061000     13.646000
C         -12.585000     23.719000     12.236000
C         -13.256000     22.663000     11.543000
C         -11.531000     24.368000     11.559000
N         -12.768000     22.231000     10.362000
N         -10.818000     25.402000     12.085000
C         -11.172000     24.015000     10.280000
C         -11.744000     22.847000      9.722000
S          -9.949000     25.958000     10.862000
N         -10.176000     24.747000      9.761000
C         -11.334000     22.149000      8.516000
S         -11.372000     20.405000      8.383000
C         -10.771000     22.696000      7.360000
C         -10.860000     20.503000      6.667000
S         -10.668000     24.304000      6.904000
C         -10.590000     21.770000      6.360000
C         -10.493000     19.340000      5.945000
C         -10.110000     23.705000      5.290000
C         -10.147000     22.319000      5.149000
N         -10.231000     18.238000      6.668000
S         -10.581000     19.125000      4.215000
C         -10.146000     17.104000      5.889000
C         -10.199000     17.388000      4.545000
C         -13.770000     24.626000     17.815000
H         -15.751000     24.387000     15.792000
H         -15.146000     23.893000     13.285000
H         -11.048000     23.842000     14.481000
H         -14.085000     22.057000     11.906000
H          -9.809000     24.310000      4.445000
H          -9.906000     21.761000      4.251000
H         -10.085000     16.120000      6.334000
H         -10.053000     16.656000      3.761000
H         -14.722000     24.196000     18.149000
C         -13.821000     26.137000     18.025000
H         -12.996000     24.219000     18.478000
H         -14.773000     26.450000     17.578000
H         -13.051000     26.766000     17.562000
C         -13.916000     26.564000     19.532000
H         -14.742000     26.127000     20.107000
C         -14.156000     28.086000     19.603000
H         -12.959000     26.372000     20.031000
H         -15.000000     28.326000     18.945000
H         -13.277000     28.623000     19.227000
C         -14.374000     28.490000     21.097000
H         -14.686000     29.541000     21.083000
C         -12.998000     28.421000     21.871000
H         -15.116000     27.863000     21.607000
H         -12.669000     27.375000     21.892000
H         -13.201000     28.780000     22.887000
H         -12.167000     29.001000     21.451000
$end

--------------------------------------------------------------
 ----------------------------------------------------------------
             Standard Nuclear Orientation (Angstroms)
    I     Atom           X                Y                Z
 ----------------------------------------------------------------
    1      C      -7.1292312031     2.1447322447    -0.3509672128
    2      C      -6.8822612495     1.9110475836    -1.6878858046
    3      N      -6.4147881636     1.6133109863     0.6461749985
    4      C      -5.7059109817     1.1449088190    -2.0841148306
    5      C      -5.2540474003     1.0148537285     0.2529882859
    6      C      -4.7549719151     0.7843151452    -1.0597042225
    7      C      -3.4480610571     0.1957638980    -1.4070087556
    8      C      -3.1602086671    -0.6561596000    -2.4979387969
    9      C      -2.3668955554     0.6678764023    -0.6822571146
   10      N      -1.9248506980    -1.1591562451    -2.7327729156
   11      N      -2.4413496258     1.6418896747     0.3175727391
   12      C      -1.0908226431     0.3668622090    -1.1531555943
   13      C      -0.8760907320    -0.6371234110    -2.0788721174
   14      S      -0.8393724568     2.1460747711     0.5037971698
   15      N      -0.1693654410     1.0569704462    -0.5358289015
   16      C       0.5480826116    -1.0136341551    -2.4820097453
   17      S       1.9884777131     0.0176342317    -2.2262120401
   18      C       0.8815020631    -2.2894103128    -2.9459393356
   19      C       3.0742199520    -1.3055374756    -2.6405928117
   20      S      -0.0668672263    -3.7399286670    -3.3494058089
   21      C       2.2704428705    -2.4421185149    -2.9870202130
   22      C       4.5121909829    -1.1897589954    -2.8581558091
   23      C       1.4683841049    -4.4975606262    -3.7956514412
   24      C       2.5897105475    -3.7336035632    -3.4656792987
   25      N       5.2608534154    -2.2801030361    -2.5745620240
   26      S       5.3291942382     0.3674031422    -3.1714954941
   27      C       6.5813164566    -1.8880521483    -2.6885903454
   28      C       6.8159375230    -0.5489246433    -3.0401646343
   29      C      -8.3214562011     2.9778164476    -0.0077598920
   30      H      -7.4242896908     2.3431373561    -2.5245055494
   31      H      -5.4814307386     0.9576530231    -3.1295826145
   32      H      -4.6902365087     0.5420635743     1.0553297024
   33      H      -3.9874148871    -1.1405566088    -3.0146044601
   34      H       1.4247941628    -5.5403705353    -4.0791464334
   35      H       3.6019719440    -3.9956430437    -3.7512929815
   36      H       7.4388577406    -2.5185078273    -2.4941486237
   37      H       7.6942793243     0.0747897881    -3.1387394185
   38      H      -9.0138546277     2.8036516329    -0.8406056378
   39      C      -8.0721526301     4.4458530543     0.3363581846
   40      H      -8.8659510620     2.5186409784     0.8261251329
   41      H      -7.4279728162     4.5633858437     1.2176784504
   42      H      -9.0593149692     4.7961012365     0.6633271847
   43      C      -7.4217741360     5.2243385462    -0.8740806422
   44      H      -6.4085612714     4.8437230533    -1.0558732098
   45      C      -7.4020029267     6.7181785055    -0.6567185592
   46      H      -7.8569876650     4.8202054080    -1.7963439402
   47      H      -6.6230884384     6.9105406266     0.0907057074
   48      H      -8.3154191538     7.0142821797    -0.1265578191
   49      C      -7.2865695810     7.4401711856    -2.0165268959
   50      H      -6.2417209035     7.4039867836    -2.3501463352
   51      C      -7.8017998117     8.9088508022    -1.9721197677
   52      H      -7.8680354928     7.0382318977    -2.8542477339
   53      H      -8.8813285360     8.9582576846    -1.7849361860
   54      H      -7.8086128381     9.4204831386    -2.9416546742
   55      H      -7.3547009989     9.4125634526    -1.1061028987
   56      C       6.5442498809     0.8130026682     0.1291560852
   57      C       6.5104738823    -0.5575302734     0.3292676483
   58      N       5.4696424348     1.6145770601     0.3693379562
   59      C       5.2615753900    -1.1102293102     0.8337261012
   60      C       4.3752075961     1.1134897568     0.8707618271
   61      C       4.1953715762    -0.2419115723     1.1717123930
   62      C       2.7995668163    -0.7182720613     1.5490646908
   63      C       2.2603218712    -1.8472272611     0.8560271405
   64      C       1.9888186712    -0.1188777796     2.5359081132
   65      N       0.9710789243    -2.1914594502     1.0532220283
   66      N       2.3778159368     0.9469794926     3.2887895133
   67      C       0.7389904527    -0.6069752367     2.8342724820
   68      C       0.1896928687    -1.6020229286     1.9911092385
   69      S       1.2536357987     1.0753205680     4.4200602967
   70      N       0.1070918642     0.0491559618     3.8178359137
   71      C      -1.1835906742    -2.0738003885     1.9556361609
   72      S      -1.9871342326    -2.5098654069     0.4640483997
   73      C      -2.0875383444    -2.1574524341     3.0178955194
   74      C      -3.4414417479    -3.0315887737     1.3746517049
   75      S      -1.7903057194    -2.0222803768     4.6603297742
   76      C      -3.2800559935    -2.7432171512     2.6643161751
   77      C      -4.6469870433    -3.3572661738     0.7044750328
   78      C      -3.4927789340    -2.5824730653     4.9111885100
   79      C      -4.1521024121    -2.9541632825     3.7409812918
   80      N      -4.7564692999    -2.9524979459    -0.5722212181
   81      S      -5.8951113032    -4.4316414759     1.2830703509
   82      C      -5.8263569813    -3.5325096779    -1.2194837151
   83      C      -6.6154273673    -4.2690480425    -0.3682022321
   84      C       7.7648911388     1.5987816776    -0.2754712347
   85      H       7.3981692298    -1.1745687065     0.2225786510
   86      H       5.0886405105    -2.1735331843     0.9730831925
   87      H       3.5297860384     1.7973357876     0.8033971787
   88      H       2.7394450004    -2.4310946313     0.0713068585
   89      H      -4.0033434724    -2.6940648314     5.8585649557
   90      H      -5.1535071555    -3.3647335282     3.6741261259
   91      H      -5.9641149168    -3.4225723541    -2.2866943485
   92      H      -7.5552603368    -4.7261169030    -0.6503334893
   93      H       8.3689132170     0.9327141008    -0.9033815088
   94      C       8.5758949872     1.9614109785     0.9657357376
   95      H       7.6089513298     2.5164222924    -0.8567736328
   96      H       8.9463452885     1.0020630278     1.3484890313
   97      H       8.0707287793     2.4462909380     1.8098971719
   98      C       9.8632366153     2.8039707376     0.6571136628
   99      H      10.5597423837     2.3725663167    -0.0727081923
  100      C      10.6911876906     2.9384689564     1.9515371815
  101      H       9.5770535010     3.8192779977     0.3588446688
  102      H      10.8210034717     1.9352518205     2.3753334077
  103      H      10.1450415894     3.5424455051     2.6859231596
  104      C      12.0310115809     3.6699209984     1.6159394262
  105      H      12.6434085128     3.6094044466     2.5233801927
  106      C      11.7460071219     5.2005388278     1.3453945710
  107      H      12.5536429149     3.2342173046     0.7552351913
  108      H      11.1307571270     5.2796521060     0.4409574350
  109      H      12.7242582913     5.6696823147     1.1864133196
  110      H      11.2149773253     5.7493774607     2.1328871172
 ----------------------------------------------------------------
 Molecular Point Group                 C1    NOp =  1
 Largest Abelian Subgroup              C1    NOp =  1
 Nuclear Repulsion Energy = 12667.2606844104 hartrees
 There are      270 alpha and      270 beta electrons
 Requested basis set is 6-31G(d,p)
 There are 406 shells and 1262 basis functions

 Total QAlloc Memory Limit  20000 MB
 Mega-Array Size      4888 MB
 MEM_STATIC part      5000 MB
 A cutoff of  1.0D-08 yielded  15406 shell pairs
 There are    168313 function pairs
 
 -------------------------------------------------------
 OpenMP Integral Computing Module                       
 Release: version 1.0, May 2013, Q-Chem Inc. Pittsburgh 
 -------------------------------------------------------
 Integral Job Info:
 Integral job number is                      11
 Integral operator is                         1
 short-range coefficients                     0
 long-range coefficients              100000000
 Omega coefficients                           0
 if combine SR and LR in K                    0
 Integral screening is                        0
 Integral computing path is                   2
 max size of driver memory is            800000
 size of driver memory is                593474
 size of scratch memory is             15166112
 max col of scratch BK array               1296
 max len of scratch array in speh3          155
 max len of scratch index in speh4           18
 max int batch size is                      520
 min int batch size is                       52
 fixed nKL is                                52
 max L of basis functions is                  2
 order of int derivative is                   0
 number of shells is                        406
 number of basis is                        1262
 number of cartesian basis is              1262
 number of contracted shell pairs         15406
 number of primitive shell pairs          47887
 maxK2 (contraction) of shell pair           36
 max number of K2 of shell pair               1
 max number of CS2 of shell pair           1855
 max number of PS2 of shell pair           9744
 mem total for path MDJ                  392072
 -------------------------------------------------------
 Smallest overlap matrix eigenvalue = 3.91E-04

 Scale SEOQF with 1.000000e-02/1.000000e-02/1.000000e-02

 Standard Electronic Orientation quadrupole field applied
 Nucleus-field energy     =     0.0000000553 hartrees
 Guess from superposition of atomic densities
 Warning:  Energy on first SCF cycle will be non-variational
 A restricted hybrid HF-DFT SCF calculation will be
 performed using Pulay DIIS extrapolation
 Exchange:     0.2000 Hartree-Fock + 0.0800 Slater + 0.7200 B88
 Correlation:  0.1900 VWN1RPA + 0.8100 LYP
 Using SG-1 standard quadrature grid
 SCF converges when DIIS error is below 1.0E-05
 using 16 threads for integral computing 
 -------------------------------------------------------
 OpenMP BLAS3 based DFT computing Module                
 Release: version 1.0, May 2013, Q-Chem Inc. Pittsburgh 
 -------------------------------------------------------
 ---------------------------------------
  Cycle       Energy         DIIS Error
 ---------------------------------------
    1   -5680.0216391047      2.14E-02
    2   -5662.4377790710      2.16E-03
    3   -5659.5815337332      3.84E-03
    4   -5661.1584544229      2.41E-03
    5   -5663.4049991381      5.19E-04
    6   -5663.4221411611      4.44E-04
    7   -5663.4490828568      2.61E-04
    8   -5663.4620528408      6.12E-05
    9   -5663.4626956872      3.12E-05
   10   -5663.4628632178      1.25E-05
   11   -5663.4628809809      9.63E-06 Convergence criterion met
 ---------------------------------------
 SCF time:  CPU 1430.50 s  wall 118.24 s
 SCF   energy in the final basis set = -5663.4628809809
 Total energy in the final basis set = -5663.4628809809
 
 --------------------------------------------------------------
 
                    Orbital Energies (a.u.)
 --------------------------------------------------------------
 
 Alpha MOs
 -- Occupied --
-88.989 -88.984 -88.927 -88.925 -88.925 -88.915 -88.910 -88.907
-14.384 -14.383 -14.378 -14.376 -14.349 -14.347 -14.340 -14.335
-14.324 -14.318 -10.273 -10.263 -10.256 -10.255 -10.253 -10.251
-10.244 -10.242 -10.241 -10.239 -10.236 -10.235 -10.233 -10.232
-10.228 -10.228 -10.227 -10.227 -10.226 -10.225 -10.225 -10.224
-10.221 -10.220 -10.219 -10.217 -10.216 -10.216 -10.215 -10.212
-10.211 -10.210 -10.206 -10.204 -10.200 -10.196 -10.193 -10.192
-10.184 -10.183 -10.182 -10.179 -10.179 -10.177 -10.176 -10.176
-10.174 -10.174 -10.172 -10.169  -8.044  -8.038  -7.987  -7.985
 -7.983  -7.973  -7.971  -7.967  -6.009  -6.004  -6.003  -6.002
 -5.998  -5.996  -5.951  -5.949  -5.948  -5.947  -5.946  -5.944
 -5.943  -5.942  -5.940  -5.937  -5.936  -5.933  -5.932  -5.931
 -5.929  -5.928  -5.927  -5.923  -1.044  -1.023  -0.957  -0.957
 -0.952  -0.950  -0.939  -0.930  -0.919  -0.905  -0.901  -0.890
 -0.843  -0.836  -0.828  -0.827  -0.809  -0.807  -0.803  -0.802
 -0.796  -0.796  -0.789  -0.785  -0.781  -0.778  -0.762  -0.757
 -0.750  -0.742  -0.739  -0.734  -0.720  -0.718  -0.707  -0.705
 -0.690  -0.688  -0.673  -0.670  -0.651  -0.649  -0.643  -0.639
 -0.635  -0.626  -0.625  -0.621  -0.608  -0.607  -0.597  -0.590
 -0.589  -0.586  -0.583  -0.579  -0.576  -0.574  -0.566  -0.566
 -0.547  -0.544  -0.541  -0.532  -0.523  -0.515  -0.513  -0.509
 -0.502  -0.498  -0.496  -0.493  -0.484  -0.479  -0.477  -0.475
 -0.469  -0.467  -0.466  -0.463  -0.460  -0.456  -0.449  -0.444
 -0.442  -0.440  -0.436  -0.433  -0.433  -0.432  -0.430  -0.426
 -0.425  -0.421  -0.420  -0.416  -0.414  -0.412  -0.408  -0.406
 -0.403  -0.402  -0.401  -0.399  -0.398  -0.396  -0.395  -0.394
 -0.393  -0.391  -0.388  -0.384  -0.382  -0.379  -0.377  -0.376
 -0.373  -0.371  -0.370  -0.368  -0.368  -0.363  -0.362  -0.353
 -0.351  -0.348  -0.346  -0.345  -0.344  -0.341  -0.339  -0.338
 -0.337  -0.332  -0.331  -0.328  -0.327  -0.325  -0.325  -0.320
 -0.312  -0.310  -0.308  -0.304  -0.300  -0.298  -0.296  -0.295
 -0.294  -0.291  -0.287  -0.285  -0.284  -0.275  -0.274  -0.272
 -0.270  -0.267  -0.260  -0.254  -0.253  -0.250  -0.247  -0.245
 -0.242  -0.235  -0.228  -0.223  -0.191  -0.187
 -- Virtual --
 -0.113  -0.108  -0.070  -0.069  -0.035  -0.033  -0.024  -0.021
 -0.020  -0.018  -0.014  -0.010  -0.008  -0.006  -0.004   0.003
  0.006   0.013   0.016   0.019   0.024   0.032   0.035   0.038
  0.047   0.054   0.063   0.069   0.073   0.082   0.084   0.091
  0.096   0.100   0.100   0.103   0.108   0.109   0.111   0.112
  0.115   0.115   0.116   0.118   0.121   0.121   0.125   0.127
  0.129   0.133   0.134   0.136   0.139   0.141   0.142   0.145
  0.148   0.153   0.154   0.159   0.159   0.162   0.163   0.164
  0.166   0.170   0.172   0.174   0.175   0.178   0.179   0.181
  0.184   0.186   0.190   0.191   0.192   0.193   0.194   0.199
  0.206   0.208   0.209   0.210   0.212   0.213   0.217   0.221
  0.225   0.229   0.232   0.233   0.236   0.236   0.238   0.241
  0.243   0.245   0.247   0.249   0.251   0.252   0.259   0.260
  0.262   0.264   0.267   0.268   0.272   0.277   0.277   0.280
  0.283   0.289   0.292   0.293   0.295   0.297   0.301   0.304
  0.305   0.309   0.312   0.314   0.321   0.323   0.323   0.330
  0.330   0.333   0.336   0.340   0.343   0.345   0.347   0.353
  0.357   0.358   0.359   0.362   0.368   0.370   0.372   0.374
  0.381   0.382   0.384   0.389   0.390   0.396   0.400   0.402
  0.409   0.411   0.415   0.419   0.428   0.437   0.439   0.444
  0.451   0.455   0.455   0.459   0.465   0.467   0.471   0.474
  0.477   0.485   0.488   0.489   0.494   0.494   0.495   0.500
  0.503   0.505   0.508   0.512   0.513   0.513   0.515   0.520
  0.522   0.523   0.525   0.527   0.532   0.533   0.535   0.537
  0.540   0.542   0.544   0.545   0.550   0.551   0.552   0.555
  0.557   0.559   0.562   0.563   0.564   0.566   0.567   0.569
  0.572   0.575   0.577   0.579   0.581   0.583   0.585   0.588
  0.591   0.592   0.594   0.597   0.599   0.600   0.602   0.604
  0.605   0.607   0.610   0.613   0.615   0.617   0.618   0.619
  0.623   0.629   0.631   0.632   0.634   0.634   0.639   0.640
  0.643   0.645   0.647   0.651   0.653   0.653   0.659   0.661
  0.663   0.667   0.668   0.672   0.675   0.676   0.678   0.680
  0.682   0.686   0.688   0.692   0.693   0.701   0.704   0.706
  0.709   0.717   0.719   0.724   0.727   0.730   0.732   0.735
  0.740   0.746   0.746   0.751   0.753   0.758   0.760   0.762
  0.764   0.766   0.768   0.771   0.773   0.774   0.777   0.777
  0.780   0.784   0.787   0.790   0.790   0.793   0.794   0.797
  0.800   0.803   0.805   0.806   0.807   0.810   0.812   0.815
  0.817   0.820   0.823   0.823   0.824   0.825   0.828   0.829
  0.831   0.833   0.838   0.840   0.841   0.843   0.846   0.849
  0.851   0.853   0.856   0.858   0.859   0.862   0.862   0.865
  0.866   0.867   0.869   0.871   0.873   0.876   0.877   0.880
  0.881   0.884   0.887   0.890   0.890   0.892   0.895   0.899
  0.901   0.904   0.907   0.907   0.911   0.911   0.914   0.916
  0.917   0.918   0.921   0.923   0.925   0.927   0.929   0.931
  0.934   0.936   0.938   0.942   0.945   0.946   0.949   0.952
  0.955   0.957   0.959   0.962   0.965   0.967   0.970   0.971
  0.973   0.976   0.977   0.979   0.981   0.982   0.984   0.986
  0.989   0.990   0.995   0.996   0.997   0.999   1.001   1.007
  1.010   1.012   1.015   1.019   1.021   1.022   1.027   1.027
  1.033   1.033   1.037   1.041   1.043   1.047   1.052   1.054
  1.058   1.063   1.066   1.071   1.074   1.079   1.083   1.085
  1.087   1.090   1.095   1.102   1.105   1.110   1.112   1.116
  1.120   1.127   1.130   1.133   1.136   1.140   1.143   1.152
  1.154   1.160   1.168   1.173   1.176   1.182   1.187   1.194
  1.201   1.202   1.205   1.215   1.216   1.220   1.226   1.228
  1.230   1.239   1.244   1.248   1.252   1.255   1.263   1.271
  1.282   1.284   1.289   1.292   1.299   1.302   1.306   1.311
  1.316   1.317   1.322   1.327   1.328   1.334   1.339   1.340
  1.346   1.349   1.356   1.363   1.364   1.368   1.372   1.374
  1.379   1.382   1.385   1.391   1.393   1.396   1.406   1.408
  1.410   1.416   1.421   1.430   1.431   1.438   1.440   1.443
  1.447   1.452   1.457   1.460   1.461   1.466   1.473   1.478
  1.483   1.489   1.493   1.500   1.502   1.507   1.512   1.518
  1.531   1.536   1.542   1.549   1.563   1.566   1.567   1.569
  1.574   1.577   1.581   1.587   1.599   1.603   1.608   1.613
  1.619   1.623   1.627   1.633   1.635   1.642   1.644   1.651
  1.651   1.654   1.658   1.664   1.669   1.673   1.679   1.683
  1.686   1.695   1.699   1.704   1.706   1.710   1.714   1.722
  1.726   1.729   1.734   1.736   1.740   1.745   1.748   1.751
  1.753   1.769   1.771   1.772   1.775   1.781   1.785   1.792
  1.801   1.803   1.806   1.811   1.813   1.816   1.819   1.822
  1.825   1.828   1.836   1.838   1.840   1.846   1.851   1.852
  1.855   1.860   1.862   1.865   1.871   1.873   1.878   1.879
  1.882   1.884   1.885   1.893   1.895   1.898   1.900   1.902
  1.905   1.909   1.913   1.913   1.917   1.922   1.925   1.929
  1.931   1.932   1.937   1.940   1.943   1.950   1.951   1.954
  1.959   1.963   1.970   1.973   1.977   1.981   1.989   1.998
  2.001   2.002   2.011   2.016   2.019   2.022   2.030   2.036
  2.040   2.045   2.055   2.059   2.063   2.068   2.074   2.076
  2.079   2.083   2.086   2.088   2.091   2.094   2.098   2.101
  2.105   2.110   2.118   2.122   2.125   2.128   2.132   2.134
  2.134   2.141   2.145   2.148   2.154   2.155   2.156   2.157
  2.158   2.170   2.175   2.178   2.182   2.184   2.186   2.192
  2.196   2.197   2.199   2.208   2.212   2.214   2.223   2.226
  2.227   2.230   2.231   2.234   2.238   2.240   2.249   2.252
  2.258   2.261   2.271   2.272   2.278   2.278   2.287   2.288
  2.290   2.292   2.296   2.300   2.302   2.306   2.313   2.315
  2.318   2.321   2.323   2.329   2.335   2.336   2.339   2.341
  2.346   2.348   2.352   2.354   2.358   2.360   2.364   2.368
  2.370   2.372   2.374   2.378   2.385   2.389   2.393   2.397
  2.402   2.405   2.409   2.410   2.413   2.414   2.416   2.419
  2.425   2.427   2.429   2.436   2.440   2.442   2.444   2.447
  2.451   2.456   2.458   2.459   2.466   2.470   2.478   2.479
  2.485   2.487   2.488   2.491   2.496   2.500   2.505   2.508
  2.508   2.510   2.516   2.518   2.525   2.529   2.532   2.536
  2.538   2.542   2.547   2.548   2.553   2.559   2.563   2.572
  2.576   2.578   2.585   2.592   2.601   2.604   2.610   2.614
  2.615   2.617   2.628   2.631   2.636   2.640   2.648   2.651
  2.654   2.656   2.660   2.664   2.666   2.668   2.672   2.676
  2.677   2.680   2.682   2.692   2.692   2.700   2.706   2.710
  2.714   2.719   2.721   2.724   2.727   2.733   2.738   2.744
  2.752   2.756   2.760   2.762   2.767   2.774   2.786   2.790
  2.791   2.794   2.799   2.809   2.814   2.822   2.824   2.830
  2.839   2.850   2.857   2.858   2.860   2.869   2.872   2.877
  2.880   2.887   2.888   2.891   2.904   2.905   2.906   2.911
  2.912   2.917   2.920   2.927   2.931   2.933   2.943   2.944
  2.947   2.953   2.968   2.972   2.982   2.986   3.003   3.020
  3.024   3.035   3.050   3.050   3.071   3.080   3.084   3.092
  3.171   3.186   3.191   3.194   3.207   3.215   3.230   3.238
  3.247   3.259   3.272   3.279   3.283   3.285   3.290   3.293
  3.293   3.296   3.310   3.313   3.316   3.323   3.330   3.335
  3.351   3.356   3.360   3.374   3.386   3.398   3.418   3.423
  3.451   3.456   3.459   3.460   3.488   3.503   3.532   3.551
  3.565   3.567   3.571   3.571   3.573   3.583   3.583   3.600
  3.603   3.622   3.692   3.730   3.865   3.886   3.907   3.927
  3.945   3.947   3.953   3.959   3.965   3.972   4.002   4.010
  4.027   4.037   4.086   4.095   4.111   4.117   4.124   4.127
  4.135   4.150   4.156   4.162   4.171   4.179   4.187   4.210
  4.219   4.235   4.248   4.257   4.265   4.271   4.282   4.291
  4.303   4.322   4.347   4.357   4.382   4.392   4.397   4.404
  4.434   4.438   4.449   4.461   4.467   4.473   4.489   4.493
  4.500   4.519   4.542   4.564   4.588   4.604   4.659   4.664
  4.685   4.696   4.701   4.738   4.765   4.779   4.783   4.804
 --------------------------------------------------------------
 
          Ground-State Mulliken Net Atomic Charges

     Atom                 Charge (a.u.)
  ----------------------------------------
      1 C                     0.290777
      2 C                    -0.119630
      3 N                    -0.483680
      4 C                    -0.101783
      5 C                     0.092740
      6 C                     0.049675
      7 C                     0.055408
      8 C                     0.067031
      9 C                     0.219214
     10 N                    -0.501754
     11 N                    -0.560411
     12 C                     0.254057
     13 C                     0.295068
     14 S                     0.590390
     15 N                    -0.591970
     16 C                    -0.232463
     17 S                     0.341109
     18 C                    -0.096417
     19 C                    -0.225545
     20 S                     0.291951
     21 C                     0.133833
     22 C                     0.036588
     23 C                    -0.305593
     24 C                    -0.070597
     25 N                    -0.428014
     26 S                     0.286132
     27 C                     0.119920
     28 C                    -0.305616
     29 C                    -0.243900
     30 H                     0.091816
     31 H                     0.094293
     32 H                     0.109195
     33 H                     0.115431
     34 H                     0.129478
     35 H                     0.114249
     36 H                     0.109606
     37 H                     0.135004
     38 H                     0.093663
     39 C                    -0.172810
     40 H                     0.107235
     41 H                     0.108731
     42 H                     0.092815
     43 C                    -0.183599
     44 H                     0.102415
     45 C                    -0.173638
     46 H                     0.084675
     47 H                     0.100301
     48 H                     0.093984
     49 C                    -0.172872
     50 H                     0.097233
     51 C                    -0.327492
     52 H                     0.096022
     53 H                     0.098946
     54 H                     0.097165
     55 H                     0.102354
     56 C                     0.262991
     57 C                    -0.110793
     58 N                    -0.468032
     59 C                    -0.090258
     60 C                     0.100992
     61 C                     0.042038
     62 C                     0.000296
     63 C                     0.067486
     64 C                     0.227336
     65 N                    -0.509258
     66 N                    -0.530904
     67 C                     0.236009
     68 C                     0.258554
     69 S                     0.606269
     70 N                    -0.574271
     71 C                    -0.218993
     72 S                     0.354788
     73 C                    -0.101418
     74 C                    -0.244135
     75 S                     0.283498
     76 C                     0.159946
     77 C                     0.049327
     78 C                    -0.310769
     79 C                    -0.064342
     80 N                    -0.444025
     81 S                     0.259687
     82 C                     0.136500
     83 C                    -0.312198
     84 C                    -0.214773
     85 H                     0.092009
     86 H                     0.104545
     87 H                     0.104398
     88 H                     0.141951
     89 H                     0.119478
     90 H                     0.116887
     91 H                     0.118560
     92 H                     0.124040
     93 H                     0.082833
     94 C                    -0.172629
     95 H                     0.112443
     96 H                     0.087961
     97 H                     0.111385
     98 C                    -0.178469
     99 H                     0.086638
    100 C                    -0.173761
    101 H                     0.099199
    102 H                     0.085012
    103 H                     0.092552
    104 C                    -0.182477
    105 H                     0.091313
    106 C                    -0.321387
    107 H                     0.093980
    108 H                     0.105875
    109 H                     0.099828
    110 H                     0.105570
  ----------------------------------------
  Sum of atomic charges =     0.000000

 -----------------------------------------------------------------
                    Cartesian Multipole Moments
 -----------------------------------------------------------------
    Charge (ESU x 10^10)
                 0.0000
    Dipole Moment (Debye)
         X       0.8016      Y      -0.8676      Z      -0.0591
       Tot       1.1827
    Quadrupole Moments (Debye-Ang)
        XX    -392.3019     XY       5.6767     YY    -439.2544
        XZ       6.3200     YZ      -2.1468     ZZ    -431.8673
    Octopole Moments (Debye-Ang^2)
       XXX     106.9765    XXY    -122.5276    XYY     -62.0776
       YYY     -64.4118    XXZ    -144.4261    XYZ      30.1633
       YYZ     -16.5641    XZZ     -59.1186    YZZ     -13.0865
       ZZZ     115.7453
    Hexadecapole Moments (Debye-Ang^3)
      XXXX  -69210.8396   XXXY     379.1203   XXYY  -15538.2155
      XYYY     293.2554   YYYY  -23446.9856   XXXZ       4.3401
      XXYZ    -192.7895   XYYZ      -8.7886   YYYZ     435.7748
      XXZZ  -14223.4532   XYZZ     164.7303   YYZZ   -6009.9593
      XZZZ     -39.8505   YZZZ     -88.2174   ZZZZ  -14076.4804
 -----------------------------------------------------------------
Archival summary:
1\1\mn246\SP\ProcedureUnspecified\6-31G**\8105042\afmv_a\FriOct1201:42:402018FriOct1201:42:402018\0\\#,ProcedureUnspecified,6-31G**,\\0,1\S\C,1,1.74948\C,2,1.39732,1,109.639\C,3,1.37486,2,113.024,1,-9.34377,0\C,4,1.33133,3,116.523,2,5.50229,0\C,4,1.40149,3,113.97,2,-174.197,0\H,6,1.08437,4,125.75,3,-177.417,0\C,6,1.39364,4,108.092,3,4.34091,0\H,8,1.08197,6,118.978,4,178.759,0\C,5,1.41723,4,127.66,3,165.095,0\N,10,1.34379,5,116.702,4,-146.6,0\C,11,1.37841,10,112.496,5,-167.905,0\H,12,1.08167,11,121.291,10,170.927,0\C,12,1.3747,11,112.345,10,-6.85955,0\H,14,1.0825,12,124.276,11,-173.805,0\C,2,1.45249,1,122.414,3,175.536,0\N,16,1.35559,2,112.759,1,34.588,0\C,17,1.3489,16,122.759,2,-176.054,0\H,18,1.08915,17,112.891,16,-179.294,0\C,16,1.41519,2,127.582,1,-143.04,0\N,20,1.3406,16,126.748,2,-3.70683,0\C,20,1.37453,16,118.247,2,167.319,0\N,22,1.36169,20,114.689,16,-172.196,0\C,22,1.41083,20,121.567,16,9.54453,0\C,24,1.52236,22,124.564,20,179.512,0\C,25,1.40001,24,118.294,22,51.028,0\H,26,1.08946,25,121.42,24,6.3185,0\N,26,1.30396,25,124.23,24,170.718,0\C,28,1.36198,26,120.257,25,1.35235,0\C,29,1.38548,28,122.512,26,-3.60073,0\H,30,1.08633,29,121.855,28,174.258,0\C,25,1.41598,24,123.894,22,-142.71,0\H,32,1.08625,25,116.729,24,7.58018,0\C,29,1.50703,28,112.306,26,172.437,0\H,34,1.0967,29,106.448,28,152.282,0\H,34,1.0974,29,117.589,28,33.1379,0\C,34,1.52638,29,109.627,28,-90.5594,0\H,37,1.09677,34,119.09,29,51.4881,0\H,37,1.09731,34,104.792,29,-66.5898,0\C,37,1.5692,34,113.798,29,179.107,0\H,40,1.09623,37,109.672,34,-71.3325,0\H,40,1.09721,37,116.135,34,54.692,0\C,40,1.54244,37,108.792,34,172.283,0\H,43,1.09653,40,110.043,37,66.4757,0\H,43,1.09677,40,107.942,37,-50.7984,0\C,43,1.56294,40,108.709,37,-175.145,0\H,46,1.09642,43,105.978,40,171.802,0\H,46,1.09718,43,113.013,40,49.8024,0\C,46,1.58026,43,109.6,40,-72.8153,0\H,49,1.09652,46,106.161,43,-176.147,0\H,49,1.09672,46,108.194,43,65.2411,0\H,49,1.09698,46,116.68,43,-54.7684,0\S,23,1.60001,22,104.655,20,-8.43043,0\S,3,1.67458,2,128.753,1,-172.083,0\S,10,1.74553,5,126.365,4,43.3755,0\H,35,2.48757,34,125.071,29,-65.8684,0\C,56,1.08177,35,109.704,34,63.5731,0\C,57,1.40425,56,135.097,35,82.2519,0\H,58,1.08197,57,117.92,56,3.05852,0\N,58,1.38215,57,116.794,56,-174.766,0\C,60,1.35269,58,106.429,57,-0.242146,0\C,61,1.45894,60,116.761,58,172.499,0\C,62,1.43453,61,125.388,60,42.2685,0\C,63,1.39791,62,117.585,61,168.025,0\C,64,1.39786,63,110.27,62,3.33062,0\C,63,1.41385,62,132.762,61,-7.23967,0\H,66,1.08393,63,121.394,62,7.19309,0\C,66,1.39638,63,113.479,62,174.216,0\H,68,1.08154,66,128.449,63,172.79,0\C,65,1.52727,64,122.345,63,168.226,0\N,70,1.34164,65,120.289,64,34.6309,0\C,71,1.35435,70,118.947,65,169.848,0\H,72,1.08897,71,116.45,70,177.208,0\C,70,1.38241,65,120.043,64,-153.46,0\N,74,1.3063,70,126.197,65,1.02534,0\C,74,1.3931,70,121.706,65,174.895,0\C,76,1.38458,74,117.688,70,16.8299,0\N,76,1.39782,74,116.176,70,-175.821,0\C,77,1.4748,76,115.634,74,166.579,0\C,79,1.42316,77,126.343,76,44.2026,0\H,80,1.08865,79,115.33,77,11.9614,0\N,80,1.36384,79,129.454,77,-176.259,0\C,82,1.33684,80,114.471,79,5.60026,0\C,83,1.37948,82,124.047,80,-11.8711,0\H,84,1.08648,83,126.128,82,178.393,0\C,79,1.44351,77,121.087,76,-138.394,0\H,86,1.08557,79,120.274,77,-1.89953,0\C,83,1.4944,82,118.468,80,172.02,0\H,88,1.09667,83,109.714,82,40.524,0\H,88,1.09699,83,103.927,82,148.278,0\C,88,1.5283,83,117.198,82,-83.3056,0\H,91,1.0973,88,103.117,83,173.33,0\H,91,1.09796,88,112.288,83,61.1265,0\C,91,1.5793,88,111.598,83,-61.2308,0\H,94,1.09695,91,107.421,88,-35.9549,0\H,94,1.0975,91,109.645,88,66.8986,0\C,94,1.5097,91,112.507,88,-169.333,0\H,97,1.09652,94,106.322,91,-73.5545,0\H,97,1.09685,94,109.015,91,36.1746,0\C,97,1.54392,94,109.688,91,158.158,0\H,100,1.0961,97,117.516,94,-40.4464,0\H,100,1.09742,97,108.876,94,78.8082,0\C,100,1.55707,97,113.031,94,-157.631,0\H,103,1.09627,100,114.648,97,175.237,0\H,103,1.09675,100,111.905,97,65.8893,0\H,103,1.09709,100,108.707,97,-48.6787,0\S,75,1.64799,74,111.129,70,179.24,0\S,57,1.75137,56,112.381,35,-89.2615,0\S,62,1.76106,61,125.671,60,-151.087,0\S,68,1.76922,66,113.762,63,7.0814,0\\\@

 Total job time:  121.46s(wall), 1439.67s(cpu) 
 Fri Oct 12 01:42:40 2018

        *************************************************************
        *                                                           *
        *  Thank you very much for using Q-Chem.  Have a nice day.  *
        *                                                           *
        *************************************************************


