
Running Job 1 of 1 ./9/29.qcin
qchem ./9/29.qcin_64095.0 /tmpu/cab_g/afmv_a/scratch_qchem/qchem64095/ 1
/tmpu/appuserlic/qchem4.4/serial-multicore/exe/qcprog.exe_s ./9/29.qcin_64095.0 /tmpu/cab_g/afmv_a/scratch_qchem/qchem64095/
Check license passed

                  Welcome to Q-Chem
     A Quantum Leap Into The Future Of Chemistry


 Q-Chem 4.4, Q-Chem, Inc., Pleasanton, CA (2016)

 Y. Shao,  Z. Gan,  E. Epifanovsky,  A. T. B. Gilbert,  M. Wormit,  
 J. Kussmann,  A. W. Lange,  A. Behn,  J. Deng,  X. Feng,  D. Ghosh,  
 M. Goldey,  P. R. Horn,  L. D. Jacobson,  I. Kaliman,  F. Rob,  
 R. Z. Khaliullin,  T. Kus,  A. Landau,  J. Liu,  E. I. Proynov,  Y. M. Rhee,  
 R. M. Richard,  M. A. Rohrdanz,  R. P. Steele,  E. J. Sundstrom,  
 H. L. Woodcock III,  P. M. Zimmerman,  D. Zuev,  B. Albrecht,  E. Alguire,  
 B. Austin,  S. A. Baeppler,  G. J. O. Beran,  Y. A. Bernard,  E. Berquist,  
 K. Brandhorst,  K. B. Bravaya,  S. T. Brown,  D. Casanova,  C.-M. Chang,  
 Y. Chen,  S. H. Chien,  K. D. Closser,  M. P. Coons,  D. L. Crittenden,  
 S. Dasgupta,  M. Diedenhofen,  R. A. DiStasio Jr.,  H. Do,  A. D. Dutoi,  
 R. G. Edgar,  P.-T. Fang,  S. Fatehi,  Q. Feng,  L. Fusti-Molnar,  
 A. Ghysels,  A. Golubeva-Zadorozhnaya,  J. Gomes,  A. Gunina,  
 M. W. D. Hanson-Heine,  P. H. P. Harbach,  A. W. Hauser,  J. E. Herr,  
 E. G. Hohenstein,  Z. C. Holden,  K. Hui,  T.-C. Jagau,  H. Ji,  B. Kaduk,  
 K. Khistyaev,  Jaehoon Kim,  Jihan Kim,  R. A. King,  P. Klunzinger,  
 K. Koh,  D. Kosenkov,  T. Kowalczyk,  C. M. Krauter,  A. Kunitsa,  
 K. U. Lao,  A. Laurent,  K. V. Lawler,  J. Lee,  D. Lefrancois,  S. Lehtola,  
 S. V. Levchenko,  C. Y. Lin,  Y.-S. Lin,  F. Liu,  E. Livshits,  
 R. C. Lochan,  A. Luenser,  P. Manohar,  S. F. Manzer,  S.-P. Mao,  Y. Mao,  
 N. Mardirossian,  A. V. Marenich,  L. A. Martinez-Martinez,  S. A. Maurer,  
 N. J. Mayhall,  J.-M. Mewes,  A. F. Morrison,  K. Nanda,  T. S. Nguyen-Beck,  
 C. M. Oana,  R. Olivares-Amaya,  D. P. O'Neill,  J. A. Parkhill,  
 T. M. Perrine,  R. Peverati,  P. A. Pieniazek,  F. Plasser,  A. Prociuk,  
 D. R. Rehn,  E. Rosta,  N. J. Russ,  N. Sergueev,  S. M. Sharada,  
 S. Sharma,  D. W. Small,  A. Sodt,  T. Stauch,  T. Stein,  D. Stuck,  
 Y.-C. Su,  A. J. W. Thom,  T. Tsuchimochi,  L. Vogt,  O. Vydrov,  T. Wang,  
 M. A. Watson,  J. Wenzel,  A. White,  C. F. Williams,  V. Vanovschi,  
 K. Yao,  S. Yeganeh,  S. R. Yost,  Z.-Q. You,  I. Y. Zhang,  X. Zhang,  
 Y. Zhao,  B. R. Brooks,  G. K. L. Chan,  D. M. Chipman,  C. J. Cramer,  
 W. A. Goddard III,  M. S. Gordon,  W. J. Hehre,  A. Klamt,  
 H. F. Schaefer III,  M. W. Schmidt,  C. D. Sherrill,  D. G. Truhlar,  
 A. Warshel,  X. Xu,  A. Aspuru-Guzik,  R. Baer,  A. T. Bell,  N. A. Besley,  
 J.-D. Chai,  A. Dreuw,  B. D. Dunietz,  T. R. Furlani,  S. R. Gwaltney,  
 C.-P. Hsu,  Y. Jung,  J. Kong,  D. S. Lambrecht,  W. Liang,  C. Ochsenfeld,  
 V. A. Rassolov,  L. V. Slipchenko,  J. E. Subotnik,  T. Van Voorhis,  
 J. M. Herbert,  A. I. Krylov,  P. M. W. Gill,  M. Head-Gordon

 Contributors to earlier versions of Q-Chem not listed above: 
 R. D. Adamson,  J. Baker,  E. F. C. Byrd,  A. K. Chakraborty,  C.-L. Cheng,  
 H. Dachsel,  R. J. Doerksen,  G. Hawkins,  A. Heyden,  S. Hirata,  
 G. Kedziora,  F. J. Keil,  C. Kelley,  P. P. Korambath,  W. Kurlancheek,  
 A. M. Lee,  M. S. Lee,  D. Liotard,  I. Lotan,  P. E. Maslen,  N. Nair,  
 D. Neuhauser,  R. Olson,  B. Peters,  J. Ritchie,  N. E. Schultz,  
 N. Shenvi,  A. C. Simmonett,  K. S. Thanthiriwatte,  Q. Wu,  W. Zhang

 Please cite Q-Chem as follows:
 Y. Shao et al., Mol. Phys. 113, 184-215 (2015)
 DOI: 10.1080/00268976.2014.952696

 Q-Chem 4.4.2 for Intel X86 Linux

 Parts of Q-Chem use Armadillo 5.200.1 (Boston Tea Smuggler).
 http://arma.sourceforge.net/

 Q-Chem begins on Fri Oct 12 01:51:45 2018  

Host: 
0

     Scratch files written to /tmpu/cab_g/afmv_a/scratch_qchem/qchem64095//
 Dec716 11556_ 22328  22283 4050   
Processing $rem in /tmpu/appuserlic/qchem4.4/serial-multicore/config/preferences.
 MEM_TOTAL  2000 
FILE_GEOM_ORG=        593

Checking the input file for inconsistencies... 	...done.

--------------------------------------------------------------
User input:
--------------------------------------------------------------
$comment
SP
$end

$rem
MEM_STATIC 5000
MEM_TOTAL 20000
JOBTYPE SP
EXCHANGE B3LYP
BASIS 6-31g(d,p)
$end

$molecule
0 1
C           8.660000    -18.819000     -1.402000
C           9.906000    -18.711000     -0.692000
N           8.535000    -18.523000     -2.678000
C          11.028000    -18.185000     -1.359000
C           9.604000    -17.976000     -3.286000
C          10.885000    -17.745000     -2.713000
C          11.997000    -17.181000     -3.598000
C          13.315000    -17.533000     -3.328000
C          11.831000    -16.374000     -4.728000
N          14.428000    -17.187000     -4.031000
N          10.680000    -15.788000     -5.061000
C          12.981000    -15.938000     -5.470000
C          14.234000    -16.447000     -5.122000
S          11.133000    -14.723000     -6.259000
N          12.705000    -15.057000     -6.416000
C          15.493000    -15.982000     -5.763000
S          15.676000    -14.389000     -6.440000
C          16.718000    -16.605000     -5.602000
C          17.393000    -14.643000     -6.627000
S          17.240000    -18.104000     -4.790000
C          17.769000    -15.844000     -6.128000
C          18.355000    -13.733000     -7.187000
C          18.863000    -17.718000     -5.423000
C          19.012000    -16.487000     -5.971000
N          17.976000    -12.828000     -8.071000
S          20.028000    -13.581000     -6.717000
C          19.009000    -12.090000     -8.657000
C          20.225000    -12.434000     -8.087000
C           7.418000    -19.350000     -0.662000
H          10.000000    -19.052000      0.335000
H          11.958000    -17.990000     -0.833000
H           9.382000    -17.714000     -4.319000
H          13.542000    -18.341000     -2.634000
H          19.613000    -18.486000     -5.288000
H          19.872000    -16.122000     -6.520000
H          18.754000    -11.299000     -9.351000
H          21.148000    -11.941000     -8.363000
H           7.129000    -18.506000     -0.023000
C           7.587000    -20.649000      0.048000
H           6.577000    -19.544000     -1.338000
H           8.161000    -20.297000      0.914000
H           8.167000    -21.423000     -0.470000
C           6.346000    -21.360000      0.564000
H           5.847000    -21.789000     -0.313000
C           5.340000    -20.534000      1.357000
H           6.665000    -22.218000      1.168000
H           4.506000    -21.192000      1.629000
H           4.839000    -19.747000      0.781000
C           6.019000    -19.945000      2.636000
H           6.451000    -20.696000      3.310000
C           5.020000    -19.156000      3.560000
H           6.799000    -19.204000      2.420000
H           4.252000    -19.856000      3.910000
H           4.454000    -18.346000      3.083000
H           5.474000    -18.704000      4.451000
C          13.782000    -20.241000     -6.411000
C          14.932000    -21.009000     -6.311000
N          13.737000    -19.155000     -7.226000
C          16.060000    -20.686000     -7.098000
C          14.759000    -18.830000     -8.009000
C          15.991000    -19.594000     -8.021000
C          17.214000    -19.167000     -8.782000
C          17.531000    -17.819000     -9.088000
C          18.315000    -20.077000     -9.209000
N          18.665000    -17.386000     -9.625000
N          18.301000    -21.383000     -8.963000
C          19.434000    -19.601000     -9.894000
C          19.641000    -18.247000    -10.103000
S          19.696000    -21.944000     -9.630000
N          20.238000    -20.565000    -10.330000
C          20.866000    -17.697000    -10.675000
S          22.198000    -18.615000    -11.275000
C          21.120000    -16.363000    -10.859000
C          23.195000    -17.246000    -11.658000
S          20.221000    -14.987000    -10.316000
C          22.402000    -16.125000    -11.369000
C          24.606000    -17.204000    -11.965000
C          21.398000    -13.989000    -11.147000
C          22.528000    -14.715000    -11.589000
N          25.128000    -18.358000    -12.323000
S          25.598000    -15.778000    -11.981000
C          26.350000    -18.097000    -12.887000
C          26.812000    -16.798000    -12.705000
C          12.701000    -20.548000     -5.370000
H          14.925000    -21.760000     -5.526000
H          16.981000    -21.249000     -6.975000
H          14.577000    -17.928000     -8.591000
H          16.806000    -17.048000     -8.831000
H          21.234000    -12.922000    -11.224000
H          23.357000    -14.213000    -12.074000
H          26.962000    -18.944000    -13.164000
H          27.802000    -16.399000    -12.885000
H          13.210000    -20.418000     -4.407000
C          12.108000    -21.975000     -5.533000
H          11.857000    -19.849000     -5.413000
H          12.816000    -22.808000     -5.614000
H          11.447000    -22.057000     -6.405000
C          11.121000    -22.231000     -4.344000
H          10.221000    -21.605000     -4.307000
C          11.844000    -22.250000     -2.945000
H          10.797000    -23.272000     -4.472000
H          12.320000    -21.285000     -2.729000
H          12.674000    -22.968000     -2.927000
C          10.880000    -22.603000     -1.832000
H           9.981000    -21.977000     -1.892000
C          11.487000    -22.638000     -0.376000
H          10.505000    -23.616000     -2.024000
H          12.392000    -23.258000     -0.381000
H          10.720000    -23.023000      0.307000
H          11.693000    -21.622000     -0.018000
$end

--------------------------------------------------------------
 ----------------------------------------------------------------
             Standard Nuclear Orientation (Angstroms)
    I     Atom           X                Y                Z
 ----------------------------------------------------------------
    1      C      -8.9578849114    -0.5225772697     0.1573837168
    2      C      -8.3459614721    -0.5633947604    -1.1434481850
    3      N      -8.2775152733    -0.6719031361     1.2737241403
    4      C      -6.9741385175    -0.8610816680    -1.2431140578
    5      C      -6.9783389082    -1.0040675997     1.1577864774
    6      C      -6.2388528946    -1.1447896074    -0.0488653995
    7      C      -4.7438426946    -1.4542139871     0.0351944317
    8      C      -3.9015663054    -0.9788994949    -0.9640926230
    9      C      -4.0920524681    -2.1297884718     1.0717626235
   10      N      -2.5473034257    -1.0960014883    -1.0344714254
   11      N      -4.7241362661    -2.8072175368     2.0312655856
   12      C      -2.6703415261    -2.3261512622     1.0139729013
   13      C      -1.9517900791    -1.7138570397    -0.0150915297
   14      S      -3.4926162152    -3.6523560892     2.7686509608
   15      N      -2.1993009533    -3.1108305272     1.9677298042
   16      C      -0.4954299260    -1.9378443437    -0.2176545866
   17      S       0.3122786499    -3.4004149113     0.2701580734
   18      C       0.2880224096    -1.1936516323    -1.0819778167
   19      C       1.7528041976    -2.9161371709    -0.5888734840
   20      S      -0.0152555954     0.2463601385    -2.0885648977
   21      C       1.5626359265    -1.7488787040    -1.2477526081
   22      C       3.0010785863    -3.6248297107    -0.6707876741
   23      C       1.7149222110     0.1439252284    -2.5126000933
   24      C       2.3593772277    -0.9822852521    -2.1199250557
   25      N       3.3581668252    -4.4534576963     0.2935699624
   26      S       4.1003244816    -3.6268549019    -2.0252570758
   27      C       4.6487053913    -4.9808426826     0.1863119300
   28      C       5.2389651673    -4.5629782878    -0.9964284238
   29      C     -10.4685703910    -0.2437303298     0.2678317409
   30      H      -8.9165209071    -0.3428305060    -2.0410334683
   31      H      -6.4954988111    -1.0037022566    -2.2075643672
   32      H      -6.5205929274    -1.1618348806     2.1327711450
   33      H      -4.2552424125    -0.2410198077    -1.6827551157
   34      H       2.1073263390     0.9757163100    -3.0824172542
   35      H       3.4258954703    -1.1682093930    -2.1667977776
   36      H       4.9770012384    -5.7054245009     0.9208492166
   37      H       6.2218768982    -4.9009002937    -1.2978371947
   38      H     -10.9208088314    -1.1892320270    -0.0572604517
   39      C     -10.9622903517     0.9685354393    -0.4440069385
   40      H     -10.7898624478    -0.0726367297     1.3019455616
   41      H     -10.9366765975     0.5855802965    -1.4716378519
   42      H     -10.3338119173     1.8659447673    -0.3850887276
   43      C     -12.3749937884     1.4524040748    -0.1576537593
   44      H     -12.3473894488     1.9217596410     0.8328584077
   45      C     -13.4935136635     0.4174729306    -0.1891468650
   46      H     -12.6119946981     2.2619390277    -0.8585280197
   47      H     -14.4311026469     0.9293065894     0.0587587703
   48      H     -13.4307107484    -0.3479782462     0.5933403807
   49      C     -13.5791566910    -0.2369320898    -1.6062644822
   50      H     -13.7471673258     0.4724896623    -2.4268704804
   51      C     -14.7733412383    -1.2507396593    -1.7491472284
   52      H     -12.7026469040    -0.8440477704    -1.8656447891
   53      H     -15.7098178149    -0.6990632470    -1.6042722562
   54      H     -14.8153433734    -2.0590507707    -1.0083004373
   55      H     -14.8410952060    -1.7500037505    -2.7240553097
   56      C      -2.2290786667     2.1256759258     1.1854744394
   57      C      -1.4958134316     3.0109612274     0.4102867011
   58      N      -1.6124462236     1.1513582921     1.9038862842
   59      C      -0.0854297935     2.9287208005     0.3986031427
   60      C      -0.2890302301     1.0536236480     1.9509611977
   61      C       0.5747504178     1.9588764340     1.2187970181
   62      C       2.0643353459     1.7826956412     1.1334971346
   63      C       2.7252447235     0.5320539291     1.2350998056
   64      C       3.0352987068     2.8668405231     0.8102479632
   65      N       4.0163627402     0.3113723294     1.0203257421
   66      N       2.6589608507     4.1207802182     0.5814400545
   67      C       4.4064181706     2.6202421752     0.7254973232
   68      C       4.9246502129     1.3381954035     0.8128908332
   69      S       4.0629756096     4.9270313708     0.2910323484
   70      N       5.1350231560     3.7221607929     0.5815593678
   71      C       6.3288820694     1.0178105773     0.5766802148
   72      S       7.5827003193     2.1595867046     0.2585056220
   73      C       6.8670785706    -0.2418502324     0.6157592436
   74      C       8.8366907101     0.9813665767     0.0257730932
   75      S       6.0718735197    -1.7743555675     0.7402675772
   76      C       8.2279592431    -0.2556525950     0.2870020537
   77      C      10.1512641424     1.1513662953    -0.5486229260
   78      C       7.6627133497    -2.5098182315     0.7550088521
   79      C       8.6971342548    -1.6014427743     0.4322590732
   80      N      10.5764158319     2.3960832652    -0.5964737967
   81      S      11.2011437961    -0.1289007135    -1.0744224115
   82      C      11.9240058120     2.3589225444    -0.8457152988
   83      C      12.4137040924     1.1141163727    -1.2260075403
   84      C      -3.7442815557     2.1665842096     0.9641653400
   85      H      -2.0794333978     3.6527125944    -0.2437912133
   86      H       0.4862242263     3.5811499276    -0.2555275138
   87      H       0.0528381871     0.2148877899     2.5551963718
   88      H       2.1292160770    -0.3480078992     1.4724940575
   89      H       7.7585526807    -3.5711571383     0.9439229797
   90      H       9.7257255282    -1.9339832041     0.3555332300
   91      H      12.4277750386     3.3023994507    -1.0030362883
   92      H      13.3793003775     0.8651428541    -1.6471215406
   93      H      -3.8644284756     1.9822693500    -0.1105172876
   94      C      -4.3719175204     3.5189831226     1.4019292902
   95      H      -4.2765572526     1.3798252951     1.5123249819
   96      H      -3.9008364579     4.4362808190     1.0299594411
   97      H      -4.4174879718     3.6261126347     2.4930184715
   98      C      -5.8876027394     3.5029574555     1.0071287138
   99      H      -6.5230941294     2.7713223642     1.5210409499
  100      C      -6.1110587826     3.4378504230    -0.5504718355
  101      H      -6.2531602594     4.5040080552     1.2703897940
  102      H      -5.6869689960     2.5194605350    -0.9761064988
  103      H      -5.5789794704     4.2446837960    -1.0707213081
  104      C      -7.5814974843     3.5295505982    -0.8998643113
  105      H      -8.1607104935     2.8100124922    -0.3078725849
  106      C      -7.9333470684     3.4589022181    -2.4363605451
  107      H      -7.9465483332     4.5046601486    -0.5540938059
  108      H      -7.3111155727     4.1812935332    -2.9789734398
  109      H      -9.0053431192     3.6594119178    -2.5530795561
  110      H      -7.7982760351     2.4395709878    -2.8179043288
 ----------------------------------------------------------------
 Molecular Point Group                 C1    NOp =  1
 Largest Abelian Subgroup              C1    NOp =  1
 Nuclear Repulsion Energy = 12087.4151790826 hartrees
 There are      270 alpha and      270 beta electrons
 Requested basis set is 6-31G(d,p)
 There are 406 shells and 1262 basis functions

 Total QAlloc Memory Limit  20000 MB
 Mega-Array Size      4888 MB
 MEM_STATIC part      5000 MB
 A cutoff of  1.0D-08 yielded  16063 shell pairs
 There are    164037 function pairs
 
 -------------------------------------------------------
 OpenMP Integral Computing Module                       
 Release: version 1.0, May 2013, Q-Chem Inc. Pittsburgh 
 -------------------------------------------------------
 Integral Job Info:
 Integral job number is                      11
 Integral operator is                         1
 short-range coefficients                     0
 long-range coefficients              100000000
 Omega coefficients                           0
 if combine SR and LR in K                    0
 Integral screening is                        0
 Integral computing path is                   2
 max size of driver memory is            800000
 size of driver memory is                593474
 size of scratch memory is             15166112
 max col of scratch BK array               1296
 max len of scratch array in speh3          155
 max len of scratch index in speh4           18
 max int batch size is                      520
 min int batch size is                       52
 fixed nKL is                                52
 max L of basis functions is                  2
 order of int derivative is                   0
 number of shells is                        406
 number of basis is                        1262
 number of cartesian basis is              1262
 number of contracted shell pairs         16063
 number of primitive shell pairs          48858
 maxK2 (contraction) of shell pair           36
 max number of K2 of shell pair               1
 max number of CS2 of shell pair           1671
 max number of PS2 of shell pair           9096
 mem total for path MDJ                  353800
 -------------------------------------------------------
 Smallest overlap matrix eigenvalue = 3.89E-04

 Scale SEOQF with 1.000000e-02/1.000000e-02/1.000000e-01

 Standard Electronic Orientation quadrupole field applied
 Nucleus-field energy     =     0.0000000202 hartrees
 Guess from superposition of atomic densities
 Warning:  Energy on first SCF cycle will be non-variational
 A restricted hybrid HF-DFT SCF calculation will be
 performed using Pulay DIIS extrapolation
 Exchange:     0.2000 Hartree-Fock + 0.0800 Slater + 0.7200 B88
 Correlation:  0.1900 VWN1RPA + 0.8100 LYP
 Using SG-1 standard quadrature grid
 SCF converges when DIIS error is below 1.0E-05
 using 16 threads for integral computing 
 -------------------------------------------------------
 OpenMP BLAS3 based DFT computing Module                
 Release: version 1.0, May 2013, Q-Chem Inc. Pittsburgh 
 -------------------------------------------------------
 ---------------------------------------
  Cycle       Energy         DIIS Error
 ---------------------------------------
    1   -5680.1243243837      2.15E-02
    2   -5662.5057485337      2.16E-03
    3   -5661.2245342816      3.23E-03
    4   -5663.3904711924      7.93E-04
    5   -5663.4950706193      3.74E-04
    6   -5663.5119679547      2.30E-04
    7   -5663.5218847078      6.62E-05
    8   -5663.5227014087      2.30E-05
    9   -5663.5228088160      6.43E-06 Convergence criterion met
 ---------------------------------------
 SCF time:  CPU 1158.24 s  wall 92.97 s
 SCF   energy in the final basis set = -5663.5228088160
 Total energy in the final basis set = -5663.5228088160
 
 --------------------------------------------------------------
 
                    Orbital Energies (a.u.)
 --------------------------------------------------------------
 
 Alpha MOs
 -- Occupied --
-88.984 -88.983 -88.933 -88.925 -88.923 -88.919 -88.909 -88.908
-14.389 -14.383 -14.382 -14.380 -14.349 -14.345 -14.342 -14.333
-14.328 -14.324 -10.269 -10.264 -10.258 -10.257 -10.255 -10.254
-10.254 -10.247 -10.238 -10.235 -10.234 -10.233 -10.233 -10.233
-10.232 -10.231 -10.231 -10.230 -10.230 -10.228 -10.226 -10.225
-10.224 -10.224 -10.224 -10.223 -10.223 -10.222 -10.220 -10.219
-10.218 -10.207 -10.207 -10.205 -10.203 -10.199 -10.194 -10.191
-10.187 -10.186 -10.186 -10.183 -10.182 -10.180 -10.179 -10.178
-10.177 -10.176 -10.176 -10.173  -8.040  -8.038  -7.994  -7.985
 -7.982  -7.979  -7.968  -7.967  -6.005  -6.004  -6.000  -5.998
 -5.998  -5.996  -5.958  -5.955  -5.951  -5.949  -5.946  -5.946
 -5.943  -5.942  -5.942  -5.939  -5.938  -5.936  -5.932  -5.931
 -5.929  -5.928  -5.924  -5.924  -1.042  -1.040  -0.975  -0.961
 -0.956  -0.948  -0.944  -0.931  -0.918  -0.915  -0.911  -0.907
 -0.846  -0.845  -0.831  -0.816  -0.815  -0.814  -0.807  -0.806
 -0.805  -0.797  -0.789  -0.788  -0.783  -0.780  -0.768  -0.762
 -0.747  -0.746  -0.741  -0.736  -0.725  -0.720  -0.712  -0.705
 -0.698  -0.689  -0.675  -0.673  -0.658  -0.653  -0.647  -0.639
 -0.636  -0.633  -0.624  -0.621  -0.612  -0.605  -0.601  -0.599
 -0.595  -0.592  -0.590  -0.584  -0.576  -0.575  -0.566  -0.554
 -0.544  -0.542  -0.539  -0.538  -0.521  -0.520  -0.516  -0.513
 -0.507  -0.502  -0.501  -0.496  -0.487  -0.483  -0.476  -0.474
 -0.473  -0.472  -0.469  -0.467  -0.460  -0.458  -0.455  -0.448
 -0.448  -0.442  -0.438  -0.437  -0.436  -0.434  -0.430  -0.429
 -0.426  -0.423  -0.422  -0.418  -0.416  -0.415  -0.414  -0.412
 -0.410  -0.410  -0.408  -0.402  -0.399  -0.398  -0.397  -0.394
 -0.391  -0.391  -0.391  -0.388  -0.387  -0.386  -0.382  -0.381
 -0.380  -0.379  -0.377  -0.375  -0.367  -0.364  -0.358  -0.356
 -0.354  -0.353  -0.352  -0.349  -0.348  -0.344  -0.341  -0.340
 -0.339  -0.336  -0.333  -0.333  -0.331  -0.330  -0.324  -0.323
 -0.317  -0.313  -0.311  -0.309  -0.303  -0.301  -0.299  -0.298
 -0.298  -0.293  -0.290  -0.289  -0.287  -0.284  -0.281  -0.280
 -0.268  -0.265  -0.264  -0.262  -0.253  -0.252  -0.249  -0.243
 -0.242  -0.240  -0.232  -0.224  -0.196  -0.189
 -- Virtual --
 -0.113  -0.109  -0.070  -0.066  -0.036  -0.035  -0.027  -0.020
 -0.017  -0.014  -0.012  -0.010  -0.004  -0.001   0.006   0.007
  0.008   0.012   0.014   0.029   0.032   0.035   0.036   0.043
  0.051   0.053   0.061   0.065   0.071   0.074   0.074   0.082
  0.088   0.094   0.096   0.099   0.103   0.107   0.108   0.109
  0.111   0.112   0.115   0.117   0.122   0.123   0.127   0.128
  0.130   0.132   0.135   0.137   0.140   0.143   0.147   0.149
  0.151   0.154   0.162   0.163   0.164   0.164   0.166   0.167
  0.169   0.170   0.171   0.172   0.174   0.177   0.179   0.183
  0.185   0.188   0.190   0.191   0.192   0.197   0.199   0.200
  0.203   0.205   0.207   0.213   0.214   0.215   0.216   0.219
  0.219   0.223   0.226   0.228   0.229   0.229   0.233   0.238
  0.240   0.243   0.251   0.251   0.253   0.255   0.258   0.261
  0.264   0.266   0.266   0.267   0.270   0.273   0.276   0.281
  0.282   0.285   0.288   0.292   0.298   0.304   0.304   0.309
  0.309   0.314   0.318   0.319   0.320   0.324   0.325   0.327
  0.328   0.329   0.333   0.340   0.343   0.345   0.345   0.348
  0.353   0.355   0.358   0.360   0.362   0.364   0.367   0.373
  0.376   0.377   0.383   0.388   0.390   0.394   0.400   0.405
  0.412   0.414   0.418   0.421   0.422   0.427   0.430   0.436
  0.441   0.445   0.448   0.458   0.458   0.463   0.465   0.471
  0.473   0.477   0.479   0.485   0.487   0.490   0.492   0.493
  0.494   0.501   0.502   0.506   0.510   0.512   0.514   0.515
  0.517   0.521   0.523   0.526   0.530   0.531   0.533   0.534
  0.537   0.541   0.544   0.547   0.548   0.549   0.552   0.553
  0.556   0.560   0.561   0.564   0.564   0.567   0.570   0.570
  0.571   0.573   0.578   0.578   0.580   0.582   0.584   0.587
  0.590   0.592   0.594   0.594   0.600   0.601   0.603   0.605
  0.607   0.611   0.613   0.615   0.618   0.621   0.621   0.622
  0.623   0.625   0.628   0.630   0.631   0.638   0.639   0.642
  0.642   0.643   0.648   0.649   0.652   0.653   0.655   0.657
  0.661   0.663   0.664   0.668   0.669   0.673   0.679   0.681
  0.682   0.683   0.689   0.691   0.692   0.697   0.699   0.703
  0.705   0.713   0.718   0.721   0.724   0.727   0.728   0.734
  0.736   0.737   0.738   0.742   0.745   0.748   0.751   0.753
  0.753   0.755   0.760   0.764   0.766   0.770   0.772   0.776
  0.778   0.784   0.785   0.787   0.789   0.791   0.794   0.795
  0.800   0.803   0.805   0.807   0.810   0.812   0.816   0.817
  0.817   0.821   0.822   0.823   0.824   0.824   0.829   0.832
  0.833   0.834   0.835   0.839   0.841   0.844   0.845   0.847
  0.849   0.851   0.854   0.855   0.859   0.861   0.861   0.863
  0.865   0.869   0.871   0.872   0.874   0.877   0.877   0.879
  0.882   0.886   0.889   0.891   0.893   0.894   0.897   0.901
  0.902   0.904   0.906   0.909   0.910   0.914   0.916   0.918
  0.922   0.923   0.926   0.927   0.930   0.931   0.934   0.937
  0.941   0.944   0.945   0.948   0.948   0.950   0.953   0.957
  0.958   0.960   0.962   0.963   0.966   0.971   0.973   0.976
  0.977   0.981   0.985   0.986   0.987   0.989   0.990   0.991
  0.997   0.998   1.002   1.005   1.008   1.011   1.012   1.013
  1.014   1.019   1.023   1.025   1.027   1.031   1.036   1.040
  1.042   1.045   1.048   1.050   1.055   1.058   1.061   1.065
  1.066   1.068   1.073   1.077   1.078   1.080   1.084   1.086
  1.090   1.092   1.097   1.102   1.109   1.112   1.116   1.119
  1.126   1.129   1.134   1.136   1.140   1.148   1.153   1.154
  1.158   1.163   1.169   1.172   1.181   1.185   1.191   1.198
  1.203   1.204   1.210   1.215   1.225   1.229   1.235   1.240
  1.241   1.246   1.255   1.256   1.258   1.261   1.264   1.271
  1.272   1.277   1.283   1.285   1.292   1.298   1.300   1.305
  1.307   1.308   1.312   1.314   1.323   1.331   1.332   1.339
  1.344   1.350   1.356   1.361   1.365   1.366   1.371   1.375
  1.380   1.383   1.385   1.388   1.393   1.397   1.399   1.402
  1.407   1.413   1.415   1.416   1.417   1.421   1.428   1.432
  1.440   1.443   1.452   1.458   1.467   1.469   1.472   1.473
  1.478   1.481   1.486   1.488   1.491   1.492   1.493   1.514
  1.519   1.523   1.535   1.535   1.536   1.541   1.562   1.571
  1.575   1.582   1.586   1.594   1.596   1.600   1.607   1.615
  1.621   1.624   1.635   1.637   1.646   1.648   1.658   1.662
  1.666   1.668   1.672   1.674   1.676   1.686   1.688   1.692
  1.695   1.695   1.698   1.703   1.706   1.713   1.714   1.716
  1.717   1.723   1.731   1.735   1.741   1.744   1.748   1.754
  1.757   1.761   1.767   1.773   1.775   1.776   1.778   1.782
  1.784   1.786   1.793   1.795   1.800   1.801   1.805   1.808
  1.814   1.822   1.826   1.831   1.833   1.836   1.840   1.843
  1.849   1.854   1.855   1.858   1.861   1.864   1.867   1.872
  1.875   1.876   1.877   1.884   1.886   1.887   1.892   1.894
  1.901   1.903   1.908   1.913   1.915   1.918   1.927   1.929
  1.935   1.937   1.941   1.948   1.950   1.955   1.957   1.959
  1.965   1.969   1.980   1.983   1.985   1.988   1.992   2.000
  2.003   2.007   2.012   2.013   2.016   2.021   2.026   2.032
  2.035   2.039   2.042   2.049   2.060   2.062   2.069   2.074
  2.077   2.082   2.084   2.088   2.089   2.093   2.098   2.103
  2.112   2.115   2.118   2.119   2.124   2.126   2.130   2.132
  2.134   2.143   2.148   2.149   2.151   2.151   2.154   2.160
  2.165   2.171   2.173   2.182   2.185   2.187   2.189   2.193
  2.196   2.198   2.201   2.204   2.209   2.213   2.218   2.220
  2.224   2.230   2.230   2.235   2.242   2.249   2.251   2.254
  2.260   2.264   2.270   2.272   2.273   2.279   2.283   2.285
  2.289   2.293   2.298   2.300   2.302   2.306   2.308   2.311
  2.314   2.316   2.317   2.322   2.324   2.328   2.330   2.333
  2.341   2.345   2.348   2.350   2.352   2.356   2.360   2.361
  2.365   2.367   2.375   2.377   2.380   2.386   2.390   2.392
  2.400   2.403   2.404   2.408   2.410   2.417   2.419   2.422
  2.424   2.427   2.433   2.434   2.435   2.437   2.441   2.445
  2.454   2.454   2.460   2.465   2.466   2.467   2.470   2.474
  2.481   2.482   2.484   2.494   2.496   2.499   2.501   2.512
  2.515   2.517   2.518   2.519   2.524   2.529   2.536   2.538
  2.541   2.544   2.550   2.552   2.562   2.563   2.567   2.569
  2.578   2.584   2.588   2.592   2.599   2.602   2.604   2.606
  2.612   2.620   2.628   2.630   2.634   2.641   2.646   2.647
  2.650   2.653   2.653   2.663   2.668   2.672   2.674   2.678
  2.681   2.684   2.687   2.694   2.696   2.699   2.701   2.707
  2.713   2.714   2.715   2.718   2.721   2.728   2.732   2.743
  2.749   2.752   2.759   2.760   2.777   2.777   2.783   2.785
  2.798   2.798   2.804   2.816   2.823   2.826   2.829   2.838
  2.845   2.848   2.849   2.861   2.869   2.873   2.875   2.881
  2.888   2.891   2.893   2.895   2.900   2.902   2.906   2.909
  2.911   2.914   2.917   2.924   2.937   2.944   2.946   2.951
  2.958   2.964   2.978   2.983   2.992   2.994   3.021   3.024
  3.037   3.041   3.052   3.056   3.090   3.100   3.102   3.112
  3.154   3.161   3.181   3.190   3.196   3.204   3.237   3.249
  3.256   3.259   3.262   3.263   3.274   3.281   3.290   3.293
  3.296   3.299   3.300   3.308   3.318   3.322   3.329   3.341
  3.345   3.349   3.353   3.372   3.373   3.391   3.433   3.437
  3.447   3.449   3.476   3.477   3.481   3.495   3.537   3.541
  3.542   3.544   3.552   3.562   3.563   3.579   3.591   3.605
  3.612   3.646   3.709   3.734   3.844   3.856   3.925   3.930
  3.942   3.950   3.960   3.966   3.987   3.988   3.995   3.996
  4.012   4.024   4.086   4.090   4.094   4.106   4.121   4.121
  4.129   4.145   4.154   4.160   4.169   4.185   4.197   4.208
  4.211   4.229   4.249   4.256   4.258   4.267   4.270   4.280
  4.299   4.302   4.333   4.348   4.371   4.383   4.400   4.407
  4.422   4.428   4.445   4.458   4.478   4.483   4.493   4.497
  4.506   4.514   4.539   4.544   4.576   4.585   4.651   4.654
  4.675   4.689   4.708   4.720   4.756   4.764   4.794   4.798
 --------------------------------------------------------------
 
          Ground-State Mulliken Net Atomic Charges

     Atom                 Charge (a.u.)
  ----------------------------------------
      1 C                     0.265914
      2 C                    -0.116775
      3 N                    -0.474050
      4 C                    -0.091275
      5 C                     0.064445
      6 C                     0.050408
      7 C                     0.076122
      8 C                     0.025877
      9 C                     0.213686
     10 N                    -0.510939
     11 N                    -0.552960
     12 C                     0.232183
     13 C                     0.313463
     14 S                     0.596887
     15 N                    -0.551270
     16 C                    -0.246705
     17 S                     0.352491
     18 C                    -0.096305
     19 C                    -0.203746
     20 S                     0.270544
     21 C                     0.140782
     22 C                     0.053324
     23 C                    -0.315671
     24 C                    -0.065779
     25 N                    -0.436665
     26 S                     0.262155
     27 C                     0.116858
     28 C                    -0.305429
     29 C                    -0.229854
     30 H                     0.096854
     31 H                     0.103924
     32 H                     0.119321
     33 H                     0.107847
     34 H                     0.123980
     35 H                     0.128751
     36 H                     0.123925
     37 H                     0.125159
     38 H                     0.116448
     39 C                    -0.178469
     40 H                     0.111708
     41 H                     0.089531
     42 H                     0.107520
     43 C                    -0.186558
     44 H                     0.088619
     45 C                    -0.170996
     46 H                     0.094419
     47 H                     0.092757
     48 H                     0.099282
     49 C                    -0.174801
     50 H                     0.098159
     51 C                    -0.332002
     52 H                     0.097721
     53 H                     0.099885
     54 H                     0.100658
     55 H                     0.097511
     56 C                     0.281707
     57 C                    -0.106949
     58 N                    -0.501190
     59 C                    -0.056150
     60 C                     0.075026
     61 C                     0.021055
     62 C                     0.046859
     63 C                     0.067280
     64 C                     0.219582
     65 N                    -0.543122
     66 N                    -0.557864
     67 C                     0.219873
     68 C                     0.315805
     69 S                     0.584298
     70 N                    -0.570337
     71 C                    -0.228886
     72 S                     0.362866
     73 C                    -0.123078
     74 C                    -0.201490
     75 S                     0.325453
     76 C                     0.112153
     77 C                     0.055011
     78 C                    -0.309718
     79 C                    -0.104137
     80 N                    -0.414711
     81 S                     0.285686
     82 C                     0.111654
     83 C                    -0.310011
     84 C                    -0.231250
     85 H                     0.087502
     86 H                     0.117003
     87 H                     0.111633
     88 H                     0.120553
     89 H                     0.119232
     90 H                     0.106951
     91 H                     0.113901
     92 H                     0.134387
     93 H                     0.120418
     94 C                    -0.189807
     95 H                     0.114111
     96 H                     0.099550
     97 H                     0.106294
     98 C                    -0.192477
     99 H                     0.107520
    100 C                    -0.168395
    101 H                     0.089004
    102 H                     0.088721
    103 H                     0.083420
    104 C                    -0.187095
    105 H                     0.102322
    106 C                    -0.323399
    107 H                     0.089565
    108 H                     0.103335
    109 H                     0.101563
    110 H                     0.099897
  ----------------------------------------
  Sum of atomic charges =     0.000000

 -----------------------------------------------------------------
                    Cartesian Multipole Moments
 -----------------------------------------------------------------
    Charge (ESU x 10^10)
                 0.0000
    Dipole Moment (Debye)
         X       1.6555      Y      -0.0419      Z      -3.8590
       Tot       4.1993
    Quadrupole Moments (Debye-Ang)
        XX    -380.3377     XY     -23.8319     YY    -430.7750
        XZ      -2.4064     YZ      -5.7213     ZZ    -449.1815
    Octopole Moments (Debye-Ang^2)
       XXX     613.8045    XXY    -110.2210    XYY      75.4753
       YYY     -12.9133    XXZ    -294.7446    XYZ     -16.5421
       YYZ       2.3211    XZZ       6.9545    YZZ      -4.5049
       ZZZ       3.0457
    Hexadecapole Moments (Debye-Ang^3)
      XXXX -107149.2120   XXXY   -1573.1971   XXYY  -22222.4466
      XYYY    -313.2035   YYYY  -16180.6791   XXXZ   -1292.9749
      XXYZ     -68.2619   XYYZ    -116.4081   YYYZ    -226.6935
      XXZZ  -21062.1645   XYZZ      80.7570   YYZZ   -3528.2975
      XZZZ     -67.9845   YZZZ    -107.0929   ZZZZ   -4597.6921
 -----------------------------------------------------------------
Archival summary:
1\1\mn246\SP\ProcedureUnspecified\6-31G**\8105042\afmv_a\FriOct1201:53:212018FriOct1201:53:212018\0\\#,ProcedureUnspecified,6-31G**,\\0,1\S\C,1,1.78293\C,2,1.38372,1,133.687\C,2,1.40014,1,114.097,3,-175.568,0\C,4,1.3538,2,114.341,1,173.746,0\C,4,1.40824,2,111.87,1,-3.92002,0\H,6,1.08362,4,119.356,2,-166.504,0\C,6,1.35568,4,111.264,2,-3.76658,0\H,8,1.08192,6,128.23,4,-172.312,0\C,5,1.43776,4,121.28,2,-179.121,0\N,10,1.32065,5,120.161,4,-155.702,0\C,11,1.39826,10,115.48,5,173.474,0\H,12,1.08275,11,118.699,10,176.878,0\C,12,1.38632,11,110.165,10,4.05344,0\H,14,1.0822,12,122.019,11,176.786,0\C,3,1.48734,2,123.95,1,-5.52945,0\N,16,1.33249,3,113.781,2,-22.8717,0\C,17,1.36114,16,116.423,3,-173.851,0\H,18,1.08905,17,110.321,16,-164.59,0\C,18,1.39066,17,127.615,16,1.49917,0\C,16,1.39649,3,122.558,2,169.247,0\N,21,1.32184,16,127.489,3,-3.40975,0\C,20,1.39847,18,114.547,17,0.199829,0\N,23,1.33382,20,123.896,18,171.049,0\C,20,1.52901,18,118.916,17,-176.771,0\C,25,1.4222,20,118.802,18,149.048,0\H,26,1.08858,25,121.798,20,3.25542,0\N,26,1.34597,25,126.826,20,-176.606,0\C,28,1.31583,26,117.002,25,-3.52407,0\C,25,1.43086,20,126.048,18,-25.1153,0\H,30,1.08609,25,119.252,20,-9.26977,0\C,30,1.40728,25,118.931,20,178.462,0\H,32,1.08621,30,119.767,25,-179.804,0\C,29,1.54017,28,117.831,26,-175.639,0\H,34,1.09631,29,112.542,28,-7.38247,0\H,34,1.09735,29,103.12,28,107.618,0\C,34,1.48999,29,115.98,28,-125.751,0\H,37,1.09697,34,98.9621,29,-75.5535,0\H,37,1.09718,34,116.744,29,40.872,0\C,37,1.52048,34,118.478,29,168.236,0\H,40,1.09644,37,106.438,34,-74.4101,0\H,40,1.0967,37,108.381,34,172.564,0\C,40,1.52419,37,117.507,34,48.2029,0\H,43,1.09642,40,114.661,37,-65.5447,0\H,43,1.09659,40,107.809,37,-178.763,0\C,43,1.56327,40,110.07,37,60.3971,0\H,46,1.09733,43,113.711,40,-66.4495,0\H,46,1.09768,43,114.553,40,57.9263,0\C,46,1.57299,43,113.187,40,176.199,0\H,49,1.09651,46,108.187,43,-62.2601,0\H,49,1.09726,46,116.265,43,54.7448,0\H,49,1.09741,46,114.884,43,178.203,0\S,22,1.61474,21,105.757,16,173.945,0\S,3,1.74054,2,111.361,1,-170.524,0\S,10,1.7444,5,126.293,4,30.1382,0\H,39,2.37057,37,148.494,34,-35.7038,0\C,56,1.09712,39,136.683,37,-121.918,0\H,57,1.09711,56,103.721,39,-80.2062,0\C,57,1.51416,56,110.394,39,164.651,0\H,59,1.09748,57,109.661,56,-73.3582,0\H,59,1.09761,57,108.474,56,173.53,0\C,59,1.57489,57,111.315,56,50.2543,0\H,62,1.09693,59,110.707,57,-51.4857,0\H,62,1.09774,59,103.158,57,63.4106,0\C,62,1.56634,59,112.768,57,175.701,0\H,65,1.09623,62,109.808,59,-64.6687,0\H,65,1.09728,62,102.207,59,-176.718,0\C,65,1.55388,62,108.116,59,64.4748,0\H,68,1.09672,65,106.709,62,61.0665,0\H,68,1.09697,65,112.209,62,-57.5472,0\C,68,1.53183,65,112.462,62,-174.652,0\N,71,1.35855,68,122.992,65,-125.535,0\C,72,1.32785,71,121.595,68,-172.104,0\H,73,1.08878,72,112.912,71,179.18,0\C,71,1.38648,68,115.17,65,65.4818,0\H,75,1.0864,71,115.447,68,-1.72511,0\C,75,1.41283,71,119.697,68,171.282,0\H,77,1.08643,75,119.689,71,-176.211,0\C,77,1.43149,75,119.675,71,1.90715,0\C,79,1.50239,77,120.276,75,-174.971,0\C,80,1.41818,79,124.153,77,142.952,0\H,81,1.08909,80,118.241,79,5.34364,0\N,81,1.32733,80,126.039,79,-172.1,0\C,83,1.3865,81,122.568,80,-7.75815,0\C,84,1.38559,83,116.722,81,5.32471,0\N,85,1.32884,84,124.682,83,-177.246,0\C,85,1.39569,84,121.809,83,1.4563,0\N,87,1.32904,85,115.749,84,173.678,0\C,84,1.45956,83,119.466,81,179.714,0\C,89,1.37038,84,125.1,83,3.9873,0\C,90,1.4001,89,112.588,84,-177.144,0\C,91,1.40321,90,117.173,89,-2.36378,0\C,91,1.43261,90,107.685,89,-176.852,0\H,93,1.08373,91,126.292,90,173.115,0\C,93,1.41398,91,112.771,90,-4.3829,0\H,95,1.08227,93,127.233,91,178.138,0\C,92,1.44462,91,124.926,90,168.689,0\N,97,1.31619,92,114.814,91,174.144,0\C,98,1.37095,97,107.367,92,-165.394,0\H,99,1.08106,98,117.442,97,-174.85,0\C,99,1.39067,98,114.841,97,-11.6659,0\H,101,1.08245,99,128.784,98,-167.515,0\C,57,1.57785,56,112.232,39,33.5488,0\H,103,1.09675,57,110.666,56,55.5178,0\H,103,1.09681,57,108.264,56,-58.6562,0\H,103,1.09702,57,109.008,56,178.768,0\S,86,1.63872,85,105.676,84,-171.204,0\S,89,1.72538,84,125.713,83,-178.228,0\S,90,1.73102,89,129.452,84,-8.5906,0\S,97,1.73718,92,125.702,91,-2.27969,0\\\@

 Total job time:  96.20s(wall), 1167.54s(cpu) 
 Fri Oct 12 01:53:21 2018

        *************************************************************
        *                                                           *
        *  Thank you very much for using Q-Chem.  Have a nice day.  *
        *                                                           *
        *************************************************************


