
Running Job 1 of 1 ./9/4.qcin
qchem ./9/4.qcin_65039.0 /tmpu/cab_g/afmv_a/scratch_qchem/qchem65039/ 1
/tmpu/appuserlic/qchem4.4/serial-multicore/exe/qcprog.exe_s ./9/4.qcin_65039.0 /tmpu/cab_g/afmv_a/scratch_qchem/qchem65039/
Check license passed

                  Welcome to Q-Chem
     A Quantum Leap Into The Future Of Chemistry


 Q-Chem 4.4, Q-Chem, Inc., Pleasanton, CA (2016)

 Y. Shao,  Z. Gan,  E. Epifanovsky,  A. T. B. Gilbert,  M. Wormit,  
 J. Kussmann,  A. W. Lange,  A. Behn,  J. Deng,  X. Feng,  D. Ghosh,  
 M. Goldey,  P. R. Horn,  L. D. Jacobson,  I. Kaliman,  F. Rob,  
 R. Z. Khaliullin,  T. Kus,  A. Landau,  J. Liu,  E. I. Proynov,  Y. M. Rhee,  
 R. M. Richard,  M. A. Rohrdanz,  R. P. Steele,  E. J. Sundstrom,  
 H. L. Woodcock III,  P. M. Zimmerman,  D. Zuev,  B. Albrecht,  E. Alguire,  
 B. Austin,  S. A. Baeppler,  G. J. O. Beran,  Y. A. Bernard,  E. Berquist,  
 K. Brandhorst,  K. B. Bravaya,  S. T. Brown,  D. Casanova,  C.-M. Chang,  
 Y. Chen,  S. H. Chien,  K. D. Closser,  M. P. Coons,  D. L. Crittenden,  
 S. Dasgupta,  M. Diedenhofen,  R. A. DiStasio Jr.,  H. Do,  A. D. Dutoi,  
 R. G. Edgar,  P.-T. Fang,  S. Fatehi,  Q. Feng,  L. Fusti-Molnar,  
 A. Ghysels,  A. Golubeva-Zadorozhnaya,  J. Gomes,  A. Gunina,  
 M. W. D. Hanson-Heine,  P. H. P. Harbach,  A. W. Hauser,  J. E. Herr,  
 E. G. Hohenstein,  Z. C. Holden,  K. Hui,  T.-C. Jagau,  H. Ji,  B. Kaduk,  
 K. Khistyaev,  Jaehoon Kim,  Jihan Kim,  R. A. King,  P. Klunzinger,  
 K. Koh,  D. Kosenkov,  T. Kowalczyk,  C. M. Krauter,  A. Kunitsa,  
 K. U. Lao,  A. Laurent,  K. V. Lawler,  J. Lee,  D. Lefrancois,  S. Lehtola,  
 S. V. Levchenko,  C. Y. Lin,  Y.-S. Lin,  F. Liu,  E. Livshits,  
 R. C. Lochan,  A. Luenser,  P. Manohar,  S. F. Manzer,  S.-P. Mao,  Y. Mao,  
 N. Mardirossian,  A. V. Marenich,  L. A. Martinez-Martinez,  S. A. Maurer,  
 N. J. Mayhall,  J.-M. Mewes,  A. F. Morrison,  K. Nanda,  T. S. Nguyen-Beck,  
 C. M. Oana,  R. Olivares-Amaya,  D. P. O'Neill,  J. A. Parkhill,  
 T. M. Perrine,  R. Peverati,  P. A. Pieniazek,  F. Plasser,  A. Prociuk,  
 D. R. Rehn,  E. Rosta,  N. J. Russ,  N. Sergueev,  S. M. Sharada,  
 S. Sharma,  D. W. Small,  A. Sodt,  T. Stauch,  T. Stein,  D. Stuck,  
 Y.-C. Su,  A. J. W. Thom,  T. Tsuchimochi,  L. Vogt,  O. Vydrov,  T. Wang,  
 M. A. Watson,  J. Wenzel,  A. White,  C. F. Williams,  V. Vanovschi,  
 K. Yao,  S. Yeganeh,  S. R. Yost,  Z.-Q. You,  I. Y. Zhang,  X. Zhang,  
 Y. Zhao,  B. R. Brooks,  G. K. L. Chan,  D. M. Chipman,  C. J. Cramer,  
 W. A. Goddard III,  M. S. Gordon,  W. J. Hehre,  A. Klamt,  
 H. F. Schaefer III,  M. W. Schmidt,  C. D. Sherrill,  D. G. Truhlar,  
 A. Warshel,  X. Xu,  A. Aspuru-Guzik,  R. Baer,  A. T. Bell,  N. A. Besley,  
 J.-D. Chai,  A. Dreuw,  B. D. Dunietz,  T. R. Furlani,  S. R. Gwaltney,  
 C.-P. Hsu,  Y. Jung,  J. Kong,  D. S. Lambrecht,  W. Liang,  C. Ochsenfeld,  
 V. A. Rassolov,  L. V. Slipchenko,  J. E. Subotnik,  T. Van Voorhis,  
 J. M. Herbert,  A. I. Krylov,  P. M. W. Gill,  M. Head-Gordon

 Contributors to earlier versions of Q-Chem not listed above: 
 R. D. Adamson,  J. Baker,  E. F. C. Byrd,  A. K. Chakraborty,  C.-L. Cheng,  
 H. Dachsel,  R. J. Doerksen,  G. Hawkins,  A. Heyden,  S. Hirata,  
 G. Kedziora,  F. J. Keil,  C. Kelley,  P. P. Korambath,  W. Kurlancheek,  
 A. M. Lee,  M. S. Lee,  D. Liotard,  I. Lotan,  P. E. Maslen,  N. Nair,  
 D. Neuhauser,  R. Olson,  B. Peters,  J. Ritchie,  N. E. Schultz,  
 N. Shenvi,  A. C. Simmonett,  K. S. Thanthiriwatte,  Q. Wu,  W. Zhang

 Please cite Q-Chem as follows:
 Y. Shao et al., Mol. Phys. 113, 184-215 (2015)
 DOI: 10.1080/00268976.2014.952696

 Q-Chem 4.4.2 for Intel X86 Linux

 Parts of Q-Chem use Armadillo 5.200.1 (Boston Tea Smuggler).
 http://arma.sourceforge.net/

 Q-Chem begins on Fri Oct 12 02:28:01 2018  

Host: 
0

     Scratch files written to /tmpu/cab_g/afmv_a/scratch_qchem/qchem65039//
 Dec716 11556_ 22328  22283 4050   
Processing $rem in /tmpu/appuserlic/qchem4.4/serial-multicore/config/preferences.
 MEM_TOTAL  2000 
FILE_GEOM_ORG=        593

Checking the input file for inconsistencies... 	...done.

--------------------------------------------------------------
User input:
--------------------------------------------------------------
$comment
SP
$end

$rem
MEM_STATIC 5000
MEM_TOTAL 20000
JOBTYPE SP
EXCHANGE B3LYP
BASIS 6-31g(d,p)
$end

$molecule
0 1
C         -20.806000     -0.023000    -13.332000
C         -19.998000     -0.711000    -14.222000
N         -20.402000      0.289000    -12.046000
C         -18.648000     -0.903000    -13.903000
C         -19.120000      0.048000    -11.739000
C         -18.183000     -0.508000    -12.616000
C         -16.772000     -0.758000    -12.184000
C         -15.988000     -1.642000    -12.921000
C         -16.097000     -0.048000    -11.128000
N         -14.697000     -1.900000    -12.631000
N         -16.636000      0.927000    -10.370000
C         -14.861000     -0.503000    -10.739000
C         -14.139000     -1.413000    -11.527000
S         -15.498000      1.194000     -9.204000
N         -14.423000      0.106000     -9.604000
C         -12.680000     -1.759000    -11.227000
S         -11.844000     -1.300000     -9.757000
C         -11.800000     -2.246000    -12.124000
C         -10.341000     -1.946000    -10.401000
S         -12.011000     -2.690000    -13.799000
C         -10.509000     -2.445000    -11.616000
C          -9.116000     -2.033000     -9.644000
C         -10.344000     -3.238000    -13.903000
C          -9.736000     -3.077000    -12.684000
N          -8.183000     -2.823000    -10.096000
S          -8.754000     -0.982000     -8.255000
C          -7.030000     -2.628000     -9.387000
C          -7.191000     -1.737000     -8.367000
C         -22.243000      0.322000    -13.789000
H         -20.462000     -1.010000    -15.157000
H         -17.948000     -1.328000    -14.616000
H         -18.883000      0.498000    -10.776000
H         -16.318000     -2.156000    -13.822000
H          -9.987000     -3.674000    -14.826000
H          -8.745000     -3.448000    -12.451000
H          -6.180000     -3.261000     -9.607000
H          -6.417000     -1.486000     -7.653000
H         -22.210000      0.723000    -14.810000
C         -23.040000      1.327000    -12.830000
H         -22.749000     -0.651000    -13.794000
H         -22.455000      2.139000    -12.382000
H         -23.378000      0.655000    -12.032000
C         -24.310000      1.821000    -13.492000
H         -24.138000      2.605000    -14.239000
C         -25.170000      2.412000    -12.386000
H         -24.815000      1.008000    -14.030000
H         -24.698000      3.255000    -11.866000
H         -25.420000      1.749000    -11.549000
C         -26.487000      2.970000    -13.007000
H         -26.274000      3.629000    -13.857000
C         -27.317000      3.722000    -12.001000
H         -27.008000      2.120000    -13.467000
H         -26.823000      4.561000    -11.496000
H         -27.608000      3.178000    -11.093000
H         -28.243000      4.046000    -12.491000
C         -13.833000     -4.735000    -10.399000
C         -14.141000     -4.117000     -9.239000
N         -14.760000     -4.943000    -11.332000
C         -15.422000     -3.565000     -9.003000
C         -16.045000     -4.438000    -11.156000
C         -16.443000     -3.788000     -9.974000
C         -17.841000     -3.316000     -9.759000
C         -18.075000     -2.064000     -9.238000
C         -19.029000     -4.057000    -10.105000
N         -19.286000     -1.539000     -9.019000
N         -19.021000     -5.356000    -10.508000
C         -20.283000     -3.524000     -9.958000
C         -20.440000     -2.155000     -9.370000
S         -20.538000     -5.754000    -10.832000
N         -21.244000     -4.379000    -10.255000
C         -21.732000     -1.617000     -9.104000
S         -23.345000     -2.502000     -9.075000
C         -21.894000     -0.296000     -8.890000
C         -24.137000     -0.935000     -8.766000
S         -20.789000      1.081000     -8.660000
C         -23.233000      0.064000     -8.728000
C         -25.559000     -0.775000     -8.786000
C         -22.169000      2.156000     -8.418000
C         -23.385000      1.460000     -8.363000
N         -26.016000      0.360000     -9.232000
S         -26.623000     -2.105000     -8.615000
C         -27.342000      0.311000     -9.364000
C         -27.871000     -0.949000     -9.078000
C         -12.452000     -5.289000    -10.806000
H         -13.433000     -3.961000     -8.431000
H         -15.618000     -3.072000     -8.055000
H         -16.829000     -4.857000    -11.785000
H         -17.279000     -1.369000     -8.976000
H         -22.079000      3.234000     -8.404000
H         -24.281000      1.977000     -8.041000
H         -27.989000      1.149000     -9.586000
H         -28.897000     -1.288000     -9.011000
H         -12.345000     -5.072000    -11.876000
C         -12.242000     -6.749000    -10.436000
H         -11.714000     -4.704000    -10.244000
H         -13.165000     -7.206000    -10.815000
H         -12.189000     -6.843000     -9.344000
C         -10.931000     -7.364000    -10.993000
H         -10.127000     -6.618000    -10.978000
C         -11.279000     -7.823000    -12.476000
H         -10.537000     -8.234000    -10.453000
H         -12.191000     -7.351000    -12.861000
H         -11.344000     -8.916000    -12.548000
C         -10.235000     -7.230000    -13.351000
H         -10.343000     -6.161000    -13.131000
C         -10.526000     -7.500000    -14.868000
H          -9.212000     -7.576000    -13.156000
H          -9.896000     -6.785000    -15.411000
H         -11.577000     -7.365000    -15.150000
H         -10.185000     -8.489000    -15.200000
$end

--------------------------------------------------------------
 ----------------------------------------------------------------
             Standard Nuclear Orientation (Angstroms)
    I     Atom           X                Y                Z
 ----------------------------------------------------------------
    1      C      -3.6018626458     0.4801883501    -2.8795089776
    2      C      -2.6003272311    -0.0908800318    -3.6470477169
    3      N      -3.3572745293     1.0640489336    -1.6492084159
    4      C      -1.2642454682     0.1228644957    -3.2860438392
    5      C      -2.0736600589     1.2115618786    -1.2936415131
    6      C      -0.9821022560     0.8020592074    -2.0663271707
    7      C       0.4219795908     0.9921842956    -1.5841948047
    8      C       1.4428063207     0.2491206261    -2.1716045174
    9      C       0.8378334881     1.9946342885    -0.6370831176
   10      N       2.7403300742     0.3803611226    -1.8302058632
   11      N       0.0291007614     2.8915048731    -0.0393502917
   12      C       2.1277283228     1.9372568832    -0.1691930141
   13      C       3.0979673754     1.1460229953    -0.8039473881
   14      S       0.9998220644     3.6071330683     1.0882424708
   15      N       2.3366876965     2.7924671434     0.8680636518
   16      C       4.5797012071     1.2384688545    -0.4374564398
   17      S       5.1942420620     2.1012991254     0.9583732279
   18      C       5.5995706896     0.8771834665    -1.2408972324
   19      C       6.8433522009     1.7862609964     0.4365995922
   20      S       5.5948941326     0.1630502539    -2.8337794893
   21      C       6.8708846941     1.0953593209    -0.6927129582
   22      C       8.0095882374     2.1291142888     1.2135089352
   23      C       7.3497235332     0.0601781510    -2.8341041676
   24      C       7.8333349804     0.5436670375    -1.6450270193
   25      N       9.1356493422     1.5547047583     0.8958092663
   26      S       8.0189774650     3.4222717148     2.4352379206
   27      C      10.1625462619     2.1413650715     1.5824149707
   28      C       9.7268854683     3.0934292433     2.4564718828
   29      C      -5.0541199742     0.3705026364    -3.4008156977
   30      H      -2.9240136428    -0.6287400636    -4.5329685333
   31      H      -0.4433711374    -0.2003725235    -3.9190344888
   32      H      -2.0092143656     1.8383186634    -0.4053506344
   33      H       1.3018433439    -0.4543371536    -2.9902458255
   34      H       7.8530155425    -0.3925546402    -3.6774333875
   35      H       8.8731456886     0.4806823167    -1.3469706218
   36      H      11.1564503010     1.7277895578     1.4697248846
   37      H      10.3733432164     3.6353525182     3.1349146174
   38      H      -5.0731252398     0.6188596729    -4.4695947124
   39      C      -6.1297999703     1.2568850381    -2.6120484419
   40      H      -5.2928852174    -0.6915692385    -3.2674571909
   41      H      -5.7960421398     2.2479606666    -2.2824307707
   42      H      -6.3243932449     0.6388044393    -1.7273214609
   43      C      -7.4486258000     1.3043346409    -3.3561095726
   44      H      -7.4455660605     1.9932122308    -4.2091554706
   45      C      -8.4864766156     1.7994917859    -2.3612215958
   46      H      -7.7003298806     0.3205578892    -3.7735617957
   47      H      -8.2734000393     2.8007823451    -1.9664449645
   48      H      -8.6004179104     1.2184476496    -1.4381597924
   49      C      -9.8691589373     1.9015516264    -3.0748513222
   50      H      -9.7892455919     2.4672941015    -4.0106393907
   51      C     -10.9142338159     2.5442779948    -2.2024057288
   52      H     -10.1307901349     0.8892038738    -3.4098769097
   53      H     -10.6781335286     3.5453859702    -1.8215888754
   54      H     -11.1018633644     2.0761488739    -1.2273512284
   55      H     -11.8661857025     2.5432824534    -2.7467756530
   56      C       4.1874603505    -1.7886450055     0.8092583589
   57      C       3.6727624443    -1.1160460390     1.8604884458
   58      N       3.3934348867    -2.3601599310    -0.0940556800
   59      C       2.2827823694    -0.8900836329     1.9956083274
   60      C       2.0146922478    -2.1885485776    -0.0113255216
   61      C       1.4038004641    -1.5057913055     1.0557647914
   62      C      -0.0775407018    -1.3897204020     1.1805401715
   63      C      -0.6508184020    -0.1819335080     1.5065838755
   64      C      -1.0167324026    -2.4560642978     0.9336178251
   65      N      -1.9654455491     0.0341272902     1.6297918126
   66      N      -0.6555561183    -3.7511734798     0.7283913689
   67      C      -2.3712542637    -2.2536878693     0.9839001163
   68      C      -2.9036042586    -0.9046579764     1.3597668894
   69      S      -2.0013525303    -4.5727090974     0.4480696849
   70      N      -3.0646050784    -3.3627872788     0.8052436087
   71      C      -4.3021393720    -0.6907289141     1.5264938897
   72      S      -5.6337252800    -1.9529227409     1.6664249919
   73      C      -4.8079916426     0.5586797870     1.5396231699
   74      C      -6.8155731301    -0.6196716817     1.7289651553
   75      S      -4.1060355625     2.1945196183     1.5762251900
   76      C      -6.2009796633     0.5757448735     1.6293904092
   77      C      -8.2281572764    -0.8408222340     1.6674634247
   78      C      -5.7259358362     2.8949936089     1.6382597907
   79      C      -6.7240828125     1.9205803553     1.7808025037
   80      N      -8.9375180097     0.0613444406     1.0519208663
   81      S      -8.9229787919    -2.3648114602     2.0208992747
   82      C     -10.1981710829    -0.3500755064     0.9119621000
   83      C     -10.4003730249    -1.6514331433     1.3754485351
   84      C       5.6831750100    -2.0144076505     0.5066118891
   85      H       4.2750832088    -0.6688945282     2.6451726007
   86      H       1.9190145104    -0.3373806121     2.8572122478
   87      H       1.3973207248    -2.8816109402    -0.5808647775
   88      H      -0.0739432926     0.7263747841     1.6723432033
   89      H      -5.9160872110     3.9500314280     1.4929406421
   90      H      -7.7378429234     2.2256699263     2.0110193384
   91      H     -11.0261951802     0.2502655660     0.5596785621
   92      H     -11.3072381385    -2.2336049600     1.4791675861
   93      H       5.7852532470    -1.9293462454    -0.5823245603
   94      C       6.2412870986    -3.3021098348     1.0922175424
   95      H       6.2170033279    -1.1842076231     0.9846372457
   96      H       5.4867711482    -4.0326711812     0.7737763396
   97      H       6.2610032591    -3.2248472514     2.1866355458
   98      C       7.6926981107    -3.6254484464     0.6494385726
   99      H       8.2767847408    -2.7009966576     0.5634810327
  100      C       7.5498620188    -4.3627290151    -0.7530910042
  101      H       8.2685426844    -4.2777729288     1.3177287765
  102      H       6.5681484006    -4.2039862365    -1.2154675846
  103      H       7.7709392443    -5.4337052067    -0.6625766003
  104      C       8.4500893741    -3.6466291677    -1.6933046594
  105      H       8.0606480932    -2.6229656958    -1.6360894069
  106      C       8.3155575312    -4.1932910316    -3.1568387348
  107      H       9.5163127877    -3.6827157550    -1.4361366395
  108      H       8.7680144088    -3.4221500195    -3.7921326143
  109      H       7.2808149835    -4.3782419451    -3.4690101934
  110      H       8.9150933210    -5.0954455037    -3.3337572048
 ----------------------------------------------------------------
 Molecular Point Group                 C1    NOp =  1
 Largest Abelian Subgroup              C1    NOp =  1
 Nuclear Repulsion Energy = 12590.9168635734 hartrees
 There are      270 alpha and      270 beta electrons
 Requested basis set is 6-31G(d,p)
 There are 406 shells and 1262 basis functions

 Total QAlloc Memory Limit  20000 MB
 Mega-Array Size      4888 MB
 MEM_STATIC part      5000 MB
 A cutoff of  1.0D-08 yielded  17040 shell pairs
 There are    178414 function pairs
 
 -------------------------------------------------------
 OpenMP Integral Computing Module                       
 Release: version 1.0, May 2013, Q-Chem Inc. Pittsburgh 
 -------------------------------------------------------
 Integral Job Info:
 Integral job number is                      11
 Integral operator is                         1
 short-range coefficients                     0
 long-range coefficients              100000000
 Omega coefficients                           0
 if combine SR and LR in K                    0
 Integral screening is                        0
 Integral computing path is                   2
 max size of driver memory is            800000
 size of driver memory is                593474
 size of scratch memory is             15166112
 max col of scratch BK array               1296
 max len of scratch array in speh3          155
 max len of scratch index in speh4           18
 max int batch size is                      520
 min int batch size is                       52
 fixed nKL is                                52
 max L of basis functions is                  2
 order of int derivative is                   0
 number of shells is                        406
 number of basis is                        1262
 number of cartesian basis is              1262
 number of contracted shell pairs         17040
 number of primitive shell pairs          51143
 maxK2 (contraction) of shell pair           36
 max number of K2 of shell pair               1
 max number of CS2 of shell pair           1918
 max number of PS2 of shell pair           9972
 mem total for path MDJ                  405176
 -------------------------------------------------------
 Smallest overlap matrix eigenvalue = 3.92E-04

 Scale SEOQF with 1.000000e-02/1.000000e-02/1.000000e-01

 Standard Electronic Orientation quadrupole field applied
 Nucleus-field energy     =    -0.0000001055 hartrees
 Guess from superposition of atomic densities
 Warning:  Energy on first SCF cycle will be non-variational
 A restricted hybrid HF-DFT SCF calculation will be
 performed using Pulay DIIS extrapolation
 Exchange:     0.2000 Hartree-Fock + 0.0800 Slater + 0.7200 B88
 Correlation:  0.1900 VWN1RPA + 0.8100 LYP
 Using SG-1 standard quadrature grid
 SCF converges when DIIS error is below 1.0E-05
 using 16 threads for integral computing 
 -------------------------------------------------------
 OpenMP BLAS3 based DFT computing Module                
 Release: version 1.0, May 2013, Q-Chem Inc. Pittsburgh 
 -------------------------------------------------------
 ---------------------------------------
  Cycle       Energy         DIIS Error
 ---------------------------------------
    1   -5680.5140846461      2.17E-02
    2   -5662.4121308157      2.24E-03
    3   -5660.4748824879      3.72E-03
    4   -5663.3170149960      9.36E-04
    5   -5663.4802909651      3.33E-04
    6   -5663.4923307536      2.20E-04
    7   -5663.5012347610      8.21E-05
    8   -5663.5025250006      2.46E-05
    9   -5663.5026347715      9.10E-06 Convergence criterion met
 ---------------------------------------
 SCF time:  CPU 1266.73 s  wall 102.11 s
 SCF   energy in the final basis set = -5663.5026347715
 Total energy in the final basis set = -5663.5026347715
 
 --------------------------------------------------------------
 
                    Orbital Energies (a.u.)
 --------------------------------------------------------------
 
 Alpha MOs
 -- Occupied --
-88.991 -88.982 -88.931 -88.927 -88.925 -88.920 -88.905 -88.898
-14.386 -14.381 -14.374 -14.373 -14.344 -14.343 -14.341 -14.339
-14.323 -14.318 -10.265 -10.265 -10.262 -10.259 -10.253 -10.250
-10.248 -10.246 -10.236 -10.235 -10.235 -10.234 -10.233 -10.233
-10.230 -10.229 -10.226 -10.225 -10.225 -10.225 -10.224 -10.220
-10.220 -10.218 -10.217 -10.217 -10.213 -10.211 -10.211 -10.210
-10.210 -10.207 -10.203 -10.199 -10.196 -10.194 -10.193 -10.188
-10.186 -10.170 -10.170 -10.169 -10.169 -10.168 -10.168 -10.168
-10.163 -10.163 -10.162 -10.161  -8.047  -8.038  -7.993  -7.988
 -7.983  -7.979  -7.964  -7.958  -6.012  -6.006  -6.005  -6.003
 -5.998  -5.995  -5.957  -5.954  -5.952  -5.950  -5.949  -5.948
 -5.945  -5.944  -5.943  -5.940  -5.939  -5.936  -5.929  -5.925
 -5.923  -5.920  -5.919  -5.915  -1.046  -1.037  -0.989  -0.974
 -0.958  -0.949  -0.926  -0.924  -0.915  -0.908  -0.904  -0.895
 -0.843  -0.835  -0.828  -0.826  -0.815  -0.810  -0.807  -0.805
 -0.799  -0.798  -0.792  -0.791  -0.782  -0.774  -0.763  -0.762
 -0.745  -0.745  -0.735  -0.732  -0.726  -0.724  -0.703  -0.701
 -0.687  -0.686  -0.673  -0.669  -0.652  -0.643  -0.643  -0.639
 -0.630  -0.629  -0.619  -0.618  -0.609  -0.608  -0.599  -0.591
 -0.590  -0.587  -0.583  -0.579  -0.573  -0.569  -0.563  -0.561
 -0.553  -0.547  -0.540  -0.536  -0.521  -0.519  -0.511  -0.508
 -0.503  -0.501  -0.497  -0.492  -0.480  -0.479  -0.474  -0.471
 -0.468  -0.467  -0.466  -0.462  -0.457  -0.455  -0.451  -0.446
 -0.442  -0.441  -0.439  -0.436  -0.435  -0.432  -0.428  -0.427
 -0.423  -0.419  -0.418  -0.417  -0.416  -0.415  -0.412  -0.409
 -0.405  -0.403  -0.402  -0.400  -0.399  -0.397  -0.396  -0.395
 -0.392  -0.390  -0.389  -0.388  -0.384  -0.383  -0.380  -0.378
 -0.377  -0.371  -0.369  -0.360  -0.359  -0.358  -0.353  -0.351
 -0.347  -0.346  -0.344  -0.342  -0.340  -0.339  -0.337  -0.335
 -0.333  -0.330  -0.328  -0.325  -0.324  -0.319  -0.315  -0.314
 -0.310  -0.308  -0.305  -0.304  -0.302  -0.299  -0.298  -0.297
 -0.292  -0.291  -0.288  -0.285  -0.284  -0.281  -0.274  -0.270
 -0.268  -0.267  -0.262  -0.258  -0.250  -0.248  -0.246  -0.244
 -0.241  -0.236  -0.228  -0.224  -0.193  -0.189
 -- Virtual --
 -0.109  -0.105  -0.069  -0.067  -0.037  -0.032  -0.027  -0.025
 -0.020  -0.018  -0.012  -0.006  -0.004  -0.001   0.000   0.003
  0.013   0.017   0.022   0.031   0.037   0.041   0.044   0.047
  0.052   0.054   0.064   0.072   0.081   0.084   0.088   0.091
  0.097   0.100   0.103   0.104   0.107   0.110   0.110   0.111
  0.117   0.119   0.120   0.122   0.123   0.125   0.128   0.129
  0.131   0.132   0.133   0.136   0.143   0.144   0.147   0.149
  0.153   0.160   0.161   0.165   0.165   0.167   0.168   0.172
  0.175   0.175   0.179   0.184   0.185   0.185   0.189   0.192
  0.194   0.196   0.196   0.200   0.201   0.204   0.205   0.210
  0.211   0.213   0.216   0.218   0.219   0.223   0.225   0.226
  0.229   0.231   0.231   0.237   0.240   0.244   0.245   0.248
  0.248   0.253   0.254   0.256   0.259   0.259   0.263   0.267
  0.270   0.271   0.276   0.281   0.282   0.284   0.285   0.289
  0.290   0.294   0.299   0.301   0.302   0.306   0.309   0.311
  0.316   0.317   0.320   0.326   0.329   0.332   0.333   0.336
  0.338   0.339   0.342   0.344   0.347   0.352   0.352   0.353
  0.358   0.362   0.365   0.368   0.369   0.371   0.376   0.379
  0.380   0.388   0.390   0.397   0.399   0.401   0.404   0.408
  0.410   0.417   0.419   0.422   0.428   0.431   0.433   0.441
  0.441   0.446   0.450   0.456   0.463   0.469   0.474   0.475
  0.481   0.484   0.488   0.490   0.494   0.496   0.503   0.504
  0.508   0.509   0.510   0.513   0.518   0.519   0.521   0.522
  0.527   0.528   0.529   0.532   0.532   0.535   0.537   0.540
  0.543   0.545   0.546   0.549   0.550   0.552   0.554   0.557
  0.558   0.559   0.561   0.565   0.567   0.569   0.571   0.574
  0.575   0.577   0.582   0.584   0.585   0.587   0.589   0.590
  0.594   0.596   0.598   0.601   0.602   0.605   0.607   0.608
  0.611   0.613   0.620   0.622   0.623   0.626   0.628   0.629
  0.631   0.632   0.632   0.636   0.637   0.639   0.641   0.642
  0.643   0.648   0.651   0.654   0.654   0.657   0.662   0.666
  0.667   0.670   0.673   0.677   0.681   0.683   0.684   0.685
  0.690   0.693   0.697   0.700   0.702   0.706   0.708   0.709
  0.713   0.718   0.720   0.726   0.732   0.735   0.737   0.739
  0.742   0.745   0.747   0.749   0.752   0.756   0.758   0.760
  0.761   0.764   0.766   0.768   0.771   0.774   0.776   0.781
  0.784   0.786   0.787   0.792   0.794   0.799   0.800   0.805
  0.806   0.809   0.812   0.814   0.816   0.817   0.821   0.822
  0.822   0.824   0.826   0.827   0.828   0.829   0.831   0.835
  0.835   0.837   0.839   0.841   0.842   0.845   0.847   0.851
  0.854   0.855   0.858   0.860   0.861   0.864   0.867   0.868
  0.870   0.874   0.876   0.879   0.881   0.883   0.885   0.886
  0.890   0.892   0.895   0.897   0.899   0.902   0.905   0.906
  0.910   0.912   0.914   0.918   0.920   0.923   0.925   0.929
  0.931   0.933   0.936   0.938   0.940   0.942   0.943   0.946
  0.946   0.948   0.952   0.954   0.960   0.962   0.965   0.967
  0.969   0.971   0.973   0.975   0.977   0.979   0.981   0.985
  0.986   0.988   0.991   0.997   0.998   1.000   1.002   1.004
  1.007   1.009   1.014   1.016   1.019   1.020   1.025   1.028
  1.035   1.036   1.040   1.045   1.048   1.049   1.051   1.052
  1.056   1.062   1.063   1.066   1.069   1.072   1.077   1.084
  1.085   1.091   1.095   1.095   1.101   1.106   1.109   1.114
  1.117   1.119   1.122   1.126   1.134   1.137   1.139   1.142
  1.145   1.149   1.150   1.159   1.163   1.166   1.168   1.170
  1.178   1.185   1.185   1.187   1.193   1.198   1.204   1.206
  1.212   1.217   1.222   1.225   1.236   1.240   1.251   1.256
  1.261   1.263   1.271   1.273   1.276   1.284   1.288   1.293
  1.296   1.297   1.299   1.303   1.304   1.308   1.312   1.317
  1.322   1.323   1.329   1.334   1.336   1.341   1.343   1.348
  1.350   1.352   1.361   1.361   1.370   1.370   1.374   1.383
  1.383   1.388   1.392   1.393   1.399   1.405   1.408   1.412
  1.414   1.415   1.424   1.427   1.437   1.444   1.447   1.452
  1.459   1.472   1.473   1.478   1.480   1.484   1.491   1.494
  1.500   1.505   1.509   1.514   1.520   1.522   1.527   1.535
  1.539   1.547   1.552   1.552   1.560   1.571   1.575   1.582
  1.583   1.590   1.591   1.603   1.613   1.618   1.622   1.624
  1.626   1.632   1.637   1.648   1.649   1.651   1.658   1.662
  1.664   1.670   1.670   1.678   1.682   1.687   1.693   1.695
  1.696   1.697   1.700   1.701   1.708   1.713   1.719   1.723
  1.729   1.733   1.735   1.739   1.742   1.747   1.749   1.757
  1.764   1.768   1.774   1.778   1.780   1.786   1.793   1.795
  1.801   1.806   1.808   1.809   1.815   1.820   1.821   1.827
  1.835   1.839   1.843   1.847   1.852   1.854   1.855   1.859
  1.865   1.870   1.871   1.875   1.880   1.881   1.885   1.887
  1.891   1.896   1.901   1.904   1.908   1.912   1.914   1.915
  1.919   1.924   1.927   1.933   1.933   1.936   1.938   1.941
  1.945   1.947   1.949   1.957   1.960   1.962   1.967   1.969
  1.971   1.977   1.981   1.986   1.992   1.997   2.000   2.003
  2.012   2.016   2.026   2.030   2.036   2.039   2.043   2.048
  2.056   2.058   2.063   2.068   2.068   2.073   2.080   2.081
  2.090   2.091   2.099   2.105   2.108   2.113   2.115   2.121
  2.125   2.127   2.130   2.131   2.133   2.138   2.140   2.145
  2.145   2.149   2.154   2.157   2.162   2.165   2.168   2.171
  2.175   2.181   2.185   2.189   2.196   2.199   2.202   2.207
  2.208   2.212   2.216   2.219   2.225   2.226   2.232   2.239
  2.240   2.244   2.247   2.251   2.258   2.263   2.265   2.268
  2.275   2.280   2.282   2.287   2.291   2.294   2.296   2.297
  2.305   2.306   2.310   2.311   2.312   2.317   2.321   2.326
  2.329   2.330   2.333   2.334   2.336   2.339   2.343   2.344
  2.347   2.352   2.358   2.363   2.366   2.371   2.378   2.385
  2.390   2.396   2.397   2.398   2.402   2.405   2.406   2.409
  2.411   2.415   2.422   2.426   2.429   2.433   2.438   2.441
  2.443   2.448   2.449   2.450   2.453   2.456   2.459   2.460
  2.465   2.467   2.472   2.473   2.480   2.483   2.490   2.494
  2.496   2.498   2.504   2.506   2.511   2.513   2.514   2.522
  2.525   2.527   2.534   2.534   2.539   2.543   2.547   2.557
  2.562   2.563   2.566   2.569   2.571   2.585   2.586   2.588
  2.590   2.594   2.595   2.602   2.609   2.612   2.617   2.625
  2.631   2.636   2.642   2.648   2.650   2.653   2.656   2.660
  2.664   2.666   2.667   2.671   2.674   2.680   2.681   2.686
  2.691   2.696   2.698   2.702   2.707   2.709   2.714   2.717
  2.724   2.725   2.728   2.731   2.735   2.745   2.755   2.760
  2.766   2.773   2.778   2.781   2.787   2.790   2.797   2.800
  2.804   2.812   2.817   2.819   2.831   2.836   2.842   2.844
  2.846   2.859   2.865   2.874   2.875   2.880   2.885   2.890
  2.893   2.895   2.908   2.914   2.918   2.923   2.925   2.936
  2.938   2.941   2.945   2.951   2.952   2.954   2.961   2.963
  2.966   2.973   2.977   2.986   3.000   3.005   3.036   3.039
  3.046   3.054   3.063   3.082   3.083   3.094   3.100   3.134
  3.164   3.181   3.197   3.208   3.225   3.228   3.248   3.255
  3.259   3.266   3.272   3.275   3.285   3.290   3.292   3.294
  3.300   3.304   3.309   3.312   3.316   3.334   3.343   3.361
  3.369   3.375   3.377   3.385   3.398   3.422   3.431   3.433
  3.447   3.480   3.489   3.492   3.501   3.505   3.532   3.545
  3.574   3.581   3.584   3.587   3.593   3.599   3.601   3.607
  3.624   3.637   3.754   3.757   3.855   3.898   3.902   3.911
  3.956   3.959   3.961   3.977   3.987   3.995   4.005   4.014
  4.069   4.070   4.083   4.089   4.098   4.107   4.118   4.134
  4.149   4.154   4.169   4.171   4.182   4.202   4.206   4.217
  4.228   4.245   4.257   4.263   4.276   4.285   4.292   4.314
  4.320   4.323   4.344   4.367   4.391   4.400   4.407   4.420
  4.448   4.461   4.467   4.476   4.489   4.495   4.506   4.507
  4.509   4.523   4.545   4.565   4.588   4.631   4.646   4.695
  4.700   4.710   4.722   4.752   4.785   4.792   4.819   4.833
 --------------------------------------------------------------
 
          Ground-State Mulliken Net Atomic Charges

     Atom                 Charge (a.u.)
  ----------------------------------------
      1 C                     0.269962
      2 C                    -0.117434
      3 N                    -0.496875
      4 C                    -0.078645
      5 C                     0.065080
      6 C                     0.041637
      7 C                     0.053188
      8 C                     0.042657
      9 C                     0.236245
     10 N                    -0.521842
     11 N                    -0.566494
     12 C                     0.198886
     13 C                     0.325639
     14 S                     0.614189
     15 N                    -0.553059
     16 C                    -0.216262
     17 S                     0.301467
     18 C                    -0.129328
     19 C                    -0.277467
     20 S                     0.272220
     21 C                     0.221148
     22 C                     0.080054
     23 C                    -0.303537
     24 C                    -0.069142
     25 N                    -0.433821
     26 S                     0.261883
     27 C                     0.124841
     28 C                    -0.305980
     29 C                    -0.258985
     30 H                     0.088316
     31 H                     0.099075
     32 H                     0.150892
     33 H                     0.113157
     34 H                     0.141450
     35 H                     0.115055
     36 H                     0.116187
     37 H                     0.122573
     38 H                     0.105630
     39 C                    -0.166519
     40 H                     0.119807
     41 H                     0.111958
     42 H                     0.116044
     43 C                    -0.174846
     44 H                     0.088388
     45 C                    -0.187784
     46 H                     0.085703
     47 H                     0.086566
     48 H                     0.118418
     49 C                    -0.172256
     50 H                     0.089405
     51 C                    -0.323174
     52 H                     0.088315
     53 H                     0.101005
     54 H                     0.093239
     55 H                     0.094536
     56 C                     0.276720
     57 C                    -0.111576
     58 N                    -0.476171
     59 C                    -0.093030
     60 C                     0.057625
     61 C                     0.033064
     62 C                     0.050811
     63 C                     0.051777
     64 C                     0.196960
     65 N                    -0.538824
     66 N                    -0.539911
     67 C                     0.216248
     68 C                     0.322699
     69 S                     0.590766
     70 N                    -0.588546
     71 C                    -0.212327
     72 S                     0.314330
     73 C                    -0.078321
     74 C                    -0.237666
     75 S                     0.297330
     76 C                     0.167216
     77 C                     0.060774
     78 C                    -0.314063
     79 C                    -0.050360
     80 N                    -0.420967
     81 S                     0.272979
     82 C                     0.136904
     83 C                    -0.315131
     84 C                    -0.217603
     85 H                     0.090938
     86 H                     0.100768
     87 H                     0.116507
     88 H                     0.100108
     89 H                     0.131464
     90 H                     0.112159
     91 H                     0.122725
     92 H                     0.130030
     93 H                     0.134926
     94 C                    -0.179790
     95 H                     0.095750
     96 H                     0.113624
     97 H                     0.078867
     98 C                    -0.192151
     99 H                     0.102207
    100 C                    -0.164921
    101 H                     0.087135
    102 H                     0.107673
    103 H                     0.085645
    104 C                    -0.181255
    105 H                     0.106656
    106 C                    -0.328180
    107 H                     0.085791
    108 H                     0.088108
    109 H                     0.102825
    110 H                     0.099319
  ----------------------------------------
  Sum of atomic charges =     0.000000

 -----------------------------------------------------------------
                    Cartesian Multipole Moments
 -----------------------------------------------------------------
    Charge (ESU x 10^10)
                 0.0000
    Dipole Moment (Debye)
         X      -2.0160      Y       0.9358      Z       0.8251
       Tot       2.3708
    Quadrupole Moments (Debye-Ang)
        XX    -382.7041     XY      23.2435     YY    -435.7251
        XZ      10.4918     YZ      10.7321     ZZ    -433.9365
    Octopole Moments (Debye-Ang^2)
       XXX    -145.9723    XXY      10.7910    XYY     -64.4638
       YYY      35.7654    XXZ     192.1418    XYZ      48.8637
       YYZ      48.9037    XZZ      40.8708    YZZ       1.2889
       ZZZ     -41.8691
    Hexadecapole Moments (Debye-Ang^3)
      XXXX  -83162.4449   XXXY    2355.4499   XXYY  -17414.5174
      XYYY     285.5326   YYYY  -13251.2625   XXXZ     158.5700
      XXYZ     455.6843   XYYZ     125.9920   YYYZ     197.9872
      XXZZ  -16846.6079   XYZZ     243.0874   YYZZ   -3816.3876
      XZZZ     254.1826   YZZZ     123.4723   ZZZZ   -9183.6233
 -----------------------------------------------------------------
Archival summary:
1\1\mn246\SP\ProcedureUnspecified\6-31G**\8105042\afmv_a\FriOct1202:29:462018FriOct1202:29:462018\0\\#,ProcedureUnspecified,6-31G**,\\0,1\S\C,1,1.75228\C,2,1.34766,1,109.968\C,3,1.40155,2,114.301,1,-8.64171,0\C,4,1.32418,3,113.324,2,8.83117,0\C,5,1.44265,4,124.504,3,-179.002,0\N,6,1.30342,5,117.542,4,10.815,0\C,7,1.36752,6,109.713,5,-170.562,0\H,8,1.0824,7,118.251,6,-176.164,0\C,8,1.36389,7,112.418,6,-3.71024,0\H,10,1.08253,8,124.079,7,-176.4,0\C,4,1.46205,3,106.476,2,-175.229,0\H,12,1.08352,4,118.326,3,171.324,0\C,12,1.37169,4,117.746,3,-4.74803,0\H,14,1.08142,12,131.261,4,179.573,0\C,2,1.52918,1,124.091,3,169.617,0\N,16,1.32942,2,118.718,1,175.026,0\C,17,1.34809,16,120.697,2,-178.688,0\H,18,1.08853,17,112.211,16,176.536,0\C,18,1.39258,17,123.147,16,-6.82036,0\C,16,1.40368,2,121.824,1,-10.916,0\N,21,1.3605,16,126.366,2,4.37229,0\C,21,1.37333,16,121.245,2,-170.144,0\N,23,1.34748,21,116.129,16,173.207,0\C,20,1.49668,18,118.949,17,-178.042,0\C,25,1.39865,20,121.131,18,-161.69,0\H,26,1.08905,25,124.954,20,-11.4675,0\N,26,1.34009,25,124.662,20,179.295,0\C,28,1.3836,26,116.853,25,0.944403,0\C,29,1.38503,28,122.611,26,-8.29665,0\H,30,1.08578,29,116.157,28,-172.539,0\C,30,1.4004,29,118.954,28,11.1335,0\H,32,1.08581,30,121.706,29,172.498,0\C,29,1.54688,28,119.706,26,175.606,0\H,34,1.09672,29,103.42,28,105.375,0\H,34,1.09742,29,109.173,28,-138.118,0\S,22,1.58094,21,107.471,16,-171.635,0\C,34,1.60154,29,115.173,28,-13.7578,0\H,38,1.09648,34,116.351,29,-37.8972,0\H,38,1.09665,34,101.805,29,80.0977,0\C,38,1.51499,34,111.109,29,-168.51,0\H,41,1.09647,38,113.537,34,77.7727,0\H,41,1.09792,38,110.992,34,-40.9119,0\C,41,1.52056,38,106.441,34,-163.742,0\H,44,1.09665,41,116.686,38,57.0064,0\H,44,1.09719,41,113.581,38,-60.6828,0\C,44,1.55932,41,109.093,38,-178.787,0\H,47,1.09643,44,111.085,41,50.7541,0\H,47,1.09797,44,106.893,41,-61.4388,0\C,47,1.50547,44,112.227,41,173.012,0\H,50,1.09661,47,108.333,44,177.526,0\H,50,1.09681,47,116.197,44,-56.6172,0\H,50,1.09776,47,116.829,44,56.6954,0\S,10,1.73941,8,115.963,7,3.8071,0\S,3,1.74565,2,130.666,1,172.433,0\H,53,2.55598,50,157.01,47,15.5064,0\C,56,1.08173,53,130.301,50,-47.7341,0\N,57,1.33345,56,125.918,53,-36.1916,0\C,58,1.3023,57,110.538,56,-171.237,0\C,57,1.39615,56,120.968,53,149.053,0\H,60,1.08263,57,130.87,56,1.23627,0\C,59,1.43111,58,116.802,57,-171.737,0\C,62,1.34784,59,125.73,58,-23.5415,0\C,63,1.39598,62,116.674,59,171.891,0\C,64,1.34799,63,112.732,62,-1.95275,0\C,65,1.42459,64,120.579,63,-176.283,0\N,66,1.35439,65,123.545,64,-21.9413,0\C,67,1.33795,66,123.388,65,-178.127,0\H,68,1.08871,67,111.832,66,-174.138,0\C,68,1.37612,67,124.951,66,4.46088,0\C,70,1.44227,68,114.721,67,-1.54572,0\N,71,1.3601,70,123.844,68,173.246,0\C,71,1.37048,70,121.88,68,-1.907,0\N,73,1.32013,71,112.959,70,176.381,0\C,63,1.45091,62,130.539,59,-17.7048,0\H,75,1.08342,63,128.356,62,-0.113283,0\C,75,1.40218,63,112.14,62,-177.997,0\H,77,1.08184,75,124.489,63,-165.722,0\C,70,1.49111,68,120.133,67,-179.263,0\C,79,1.40642,70,122.194,68,135.2,0\H,80,1.08897,79,117.357,70,18.0184,0\N,80,1.39184,79,122.359,70,176.508,0\C,82,1.33157,80,119.832,79,4.71116,0\C,83,1.34996,82,120.981,80,-4.47467,0\H,84,1.08557,83,123.818,82,-177.333,0\C,84,1.41469,83,121.909,82,5.34315,0\H,86,1.08636,84,119.079,83,179.609,0\C,83,1.54264,82,112.474,80,176.376,0\H,88,1.09668,83,106.001,82,-155.071,0\H,88,1.09701,83,105.88,82,-39.1539,0\C,88,1.52072,83,113.842,82,87.4317,0\H,91,1.09732,88,109.332,83,68.0685,0\H,91,1.09746,88,101.515,83,-48.5796,0\C,91,1.55151,88,114.198,83,-172.862,0\H,94,1.09689,91,110.173,88,-36.3287,0\H,94,1.09715,91,116.172,88,-156.348,0\C,94,1.59093,91,105.318,88,84.2393,0\H,97,1.0967,94,112.642,91,-17.5003,0\H,97,1.0973,94,111.192,91,107.662,0\C,97,1.48567,94,106.268,91,-128.235,0\H,100,1.09673,97,101.637,94,57.6457,0\H,100,1.09739,97,115.124,94,-62.7823,0\C,100,1.56808,97,111.755,94,175.027,0\H,103,1.09652,100,113.921,97,-42.7718,0\H,103,1.0968,100,105.076,97,-163.307,0\H,103,1.09755,100,112.963,97,82.7591,0\S,72,1.60146,71,106.962,70,178.129,0\S,59,1.71179,58,119.554,57,-6.22278,0\S,77,1.76595,75,112.39,63,9.13062,0\S,62,1.78276,59,122.498,58,145.49,0\\\@

 Total job time:  105.40s(wall), 1276.45s(cpu) 
 Fri Oct 12 02:29:46 2018

        *************************************************************
        *                                                           *
        *  Thank you very much for using Q-Chem.  Have a nice day.  *
        *                                                           *
        *************************************************************


