
Running Job 1 of 1 ./9/44.qcin
qchem ./9/44.qcin_64796.0 /tmpu/cab_g/afmv_a/scratch_qchem/qchem64796/ 1
/tmpu/appuserlic/qchem4.4/serial-multicore/exe/qcprog.exe_s ./9/44.qcin_64796.0 /tmpu/cab_g/afmv_a/scratch_qchem/qchem64796/
Check license passed

                  Welcome to Q-Chem
     A Quantum Leap Into The Future Of Chemistry


 Q-Chem 4.4, Q-Chem, Inc., Pleasanton, CA (2016)

 Y. Shao,  Z. Gan,  E. Epifanovsky,  A. T. B. Gilbert,  M. Wormit,  
 J. Kussmann,  A. W. Lange,  A. Behn,  J. Deng,  X. Feng,  D. Ghosh,  
 M. Goldey,  P. R. Horn,  L. D. Jacobson,  I. Kaliman,  F. Rob,  
 R. Z. Khaliullin,  T. Kus,  A. Landau,  J. Liu,  E. I. Proynov,  Y. M. Rhee,  
 R. M. Richard,  M. A. Rohrdanz,  R. P. Steele,  E. J. Sundstrom,  
 H. L. Woodcock III,  P. M. Zimmerman,  D. Zuev,  B. Albrecht,  E. Alguire,  
 B. Austin,  S. A. Baeppler,  G. J. O. Beran,  Y. A. Bernard,  E. Berquist,  
 K. Brandhorst,  K. B. Bravaya,  S. T. Brown,  D. Casanova,  C.-M. Chang,  
 Y. Chen,  S. H. Chien,  K. D. Closser,  M. P. Coons,  D. L. Crittenden,  
 S. Dasgupta,  M. Diedenhofen,  R. A. DiStasio Jr.,  H. Do,  A. D. Dutoi,  
 R. G. Edgar,  P.-T. Fang,  S. Fatehi,  Q. Feng,  L. Fusti-Molnar,  
 A. Ghysels,  A. Golubeva-Zadorozhnaya,  J. Gomes,  A. Gunina,  
 M. W. D. Hanson-Heine,  P. H. P. Harbach,  A. W. Hauser,  J. E. Herr,  
 E. G. Hohenstein,  Z. C. Holden,  K. Hui,  T.-C. Jagau,  H. Ji,  B. Kaduk,  
 K. Khistyaev,  Jaehoon Kim,  Jihan Kim,  R. A. King,  P. Klunzinger,  
 K. Koh,  D. Kosenkov,  T. Kowalczyk,  C. M. Krauter,  A. Kunitsa,  
 K. U. Lao,  A. Laurent,  K. V. Lawler,  J. Lee,  D. Lefrancois,  S. Lehtola,  
 S. V. Levchenko,  C. Y. Lin,  Y.-S. Lin,  F. Liu,  E. Livshits,  
 R. C. Lochan,  A. Luenser,  P. Manohar,  S. F. Manzer,  S.-P. Mao,  Y. Mao,  
 N. Mardirossian,  A. V. Marenich,  L. A. Martinez-Martinez,  S. A. Maurer,  
 N. J. Mayhall,  J.-M. Mewes,  A. F. Morrison,  K. Nanda,  T. S. Nguyen-Beck,  
 C. M. Oana,  R. Olivares-Amaya,  D. P. O'Neill,  J. A. Parkhill,  
 T. M. Perrine,  R. Peverati,  P. A. Pieniazek,  F. Plasser,  A. Prociuk,  
 D. R. Rehn,  E. Rosta,  N. J. Russ,  N. Sergueev,  S. M. Sharada,  
 S. Sharma,  D. W. Small,  A. Sodt,  T. Stauch,  T. Stein,  D. Stuck,  
 Y.-C. Su,  A. J. W. Thom,  T. Tsuchimochi,  L. Vogt,  O. Vydrov,  T. Wang,  
 M. A. Watson,  J. Wenzel,  A. White,  C. F. Williams,  V. Vanovschi,  
 K. Yao,  S. Yeganeh,  S. R. Yost,  Z.-Q. You,  I. Y. Zhang,  X. Zhang,  
 Y. Zhao,  B. R. Brooks,  G. K. L. Chan,  D. M. Chipman,  C. J. Cramer,  
 W. A. Goddard III,  M. S. Gordon,  W. J. Hehre,  A. Klamt,  
 H. F. Schaefer III,  M. W. Schmidt,  C. D. Sherrill,  D. G. Truhlar,  
 A. Warshel,  X. Xu,  A. Aspuru-Guzik,  R. Baer,  A. T. Bell,  N. A. Besley,  
 J.-D. Chai,  A. Dreuw,  B. D. Dunietz,  T. R. Furlani,  S. R. Gwaltney,  
 C.-P. Hsu,  Y. Jung,  J. Kong,  D. S. Lambrecht,  W. Liang,  C. Ochsenfeld,  
 V. A. Rassolov,  L. V. Slipchenko,  J. E. Subotnik,  T. Van Voorhis,  
 J. M. Herbert,  A. I. Krylov,  P. M. W. Gill,  M. Head-Gordon

 Contributors to earlier versions of Q-Chem not listed above: 
 R. D. Adamson,  J. Baker,  E. F. C. Byrd,  A. K. Chakraborty,  C.-L. Cheng,  
 H. Dachsel,  R. J. Doerksen,  G. Hawkins,  A. Heyden,  S. Hirata,  
 G. Kedziora,  F. J. Keil,  C. Kelley,  P. P. Korambath,  W. Kurlancheek,  
 A. M. Lee,  M. S. Lee,  D. Liotard,  I. Lotan,  P. E. Maslen,  N. Nair,  
 D. Neuhauser,  R. Olson,  B. Peters,  J. Ritchie,  N. E. Schultz,  
 N. Shenvi,  A. C. Simmonett,  K. S. Thanthiriwatte,  Q. Wu,  W. Zhang

 Please cite Q-Chem as follows:
 Y. Shao et al., Mol. Phys. 113, 184-215 (2015)
 DOI: 10.1080/00268976.2014.952696

 Q-Chem 4.4.2 for Intel X86 Linux

 Parts of Q-Chem use Armadillo 5.200.1 (Boston Tea Smuggler).
 http://arma.sourceforge.net/

 Q-Chem begins on Fri Oct 12 02:18:31 2018  

Host: 
0

     Scratch files written to /tmpu/cab_g/afmv_a/scratch_qchem/qchem64796//
 Dec716 11556_ 22328  22283 4050   
Processing $rem in /tmpu/appuserlic/qchem4.4/serial-multicore/config/preferences.
 MEM_TOTAL  2000 
FILE_GEOM_ORG=        593

Checking the input file for inconsistencies... 	...done.

--------------------------------------------------------------
User input:
--------------------------------------------------------------
$comment
SP
$end

$rem
MEM_STATIC 5000
MEM_TOTAL 20000
JOBTYPE SP
EXCHANGE B3LYP
BASIS 6-31g(d,p)
$end

$molecule
0 1
C         -22.012000    -13.940000     -3.621000
C         -21.523000    -13.034000     -2.719000
N         -23.282000    -14.267000     -3.614000
C         -22.404000    -12.526000     -1.686000
C         -24.196000    -13.654000     -2.774000
C         -23.784000    -12.764000     -1.727000
C         -24.762000    -11.892000     -0.855000
C         -26.096000    -12.356000     -0.682000
C         -24.447000    -10.633000     -0.278000
N         -27.048000    -11.655000     -0.056000
N         -23.287000     -9.936000     -0.462000
C         -25.472000     -9.880000      0.341000
C         -26.788000    -10.412000      0.450000
S         -23.425000     -8.561000      0.353000
N         -24.999000     -8.703000      0.831000
C         -27.914000     -9.692000      1.057000
S         -27.980000     -7.958000      1.512000
C         -29.113000    -10.279000      1.396000
C         -29.529000     -8.112000      2.204000
S         -29.579000    -11.985000      1.480000
C         -30.061000     -9.393000      2.026000
C         -30.093000     -7.085000      3.090000
C         -31.032000    -11.525000      2.451000
C         -31.217000    -10.156000      2.592000
N         -30.974000     -7.458000      4.032000
S         -29.156000     -5.698000      3.375000
C         -30.959000     -6.458000      5.032000
C         -30.004000     -5.450000      4.823000
C         -21.109000    -14.471000     -4.730000
H         -20.471000    -12.771000     -2.781000
H         -21.977000    -11.899000     -0.908000
H         -25.237000    -13.905000     -2.974000
H         -26.393000    -13.320000     -1.092000
H         -31.724000    -12.320000      2.697000
H         -32.026000     -9.617000      3.071000
H         -31.628000     -6.482000      5.882000
H         -29.948000     -4.616000      5.509000
H         -20.059000    -14.273000     -4.481000
C         -21.483000    -13.746000     -6.088000
H         -21.217000    -15.550000     -4.893000
H         -21.188000    -12.690000     -6.072000
H         -22.574000    -13.718000     -6.198000
C         -20.766000    -14.429000     -7.286000
H         -19.685000    -14.575000     -7.173000
C         -21.178000    -13.802000     -8.659000
H         -21.256000    -15.411000     -7.264000
H         -20.982000    -12.723000     -8.686000
H         -22.271000    -13.842000     -8.741000
C         -20.421000    -14.500000     -9.868000
H         -20.392000    -13.774000    -10.690000
C         -21.040000    -15.802000    -10.360000
H         -19.358000    -14.688000     -9.677000
H         -21.981000    -15.540000    -10.860000
H         -21.294000    -16.404000     -9.478000
H         -20.409000    -16.309000    -11.100000
C         -30.857000     -4.307000      0.915000
C         -30.199000     -5.236000      0.103000
N         -30.216000     -3.195000      1.311000
C         -28.921000     -4.977000     -0.430000
C         -28.950000     -2.985000      0.925000
C         -28.229000     -3.867000      0.016000
C         -26.855000     -3.685000     -0.531000
C         -25.913000     -4.781000     -0.726000
C         -26.199000     -2.407000     -0.713000
N         -24.678000     -4.640000     -1.185000
N         -26.918000     -1.299000     -0.539000
C         -24.951000     -2.315000     -1.341000
C         -24.146000     -3.438000     -1.532000
S         -25.853000     -0.217000     -1.196000
N         -24.532000     -1.033000     -1.457000
C         -22.734000     -3.351000     -1.928000
S         -21.844000     -1.953000     -2.487000
C         -21.825000     -4.460000     -2.006000
C         -20.257000     -2.764000     -2.446000
S         -22.087000     -6.183000     -1.741000
C         -20.482000     -4.126000     -2.147000
C         -18.931000     -2.178000     -2.679000
C         -20.371000     -6.426000     -1.796000
C         -19.649000     -5.226000     -1.994000
N         -18.902000     -0.815000     -2.665000
S         -17.338000     -2.916000     -3.037000
C         -17.582000     -0.286000     -2.698000
C         -16.676000     -1.258000     -2.890000
C         -32.276000     -4.408000      1.556000
H         -30.778000     -6.066000     -0.291000
H         -28.458000     -5.734000     -1.055000
H         -28.425000     -2.113000      1.312000
H         -26.299000     -5.759000     -0.442000
H         -19.997000     -7.438000     -1.712000
H         -18.567000     -5.213000     -1.929000
H         -17.443000      0.783000     -2.604000
H         -15.651000     -1.178000     -3.226000
H         -32.124000     -4.328000      2.639000
C         -32.989000     -5.662000      1.159000
H         -32.812000     -3.488000      1.294000
H         -32.334000     -6.537000      1.067000
H         -33.342000     -5.510000      0.131000
C         -34.113000     -5.933000      2.186000
H         -33.805000     -5.947000      3.239000
C         -34.678000     -7.348000      1.866000
H         -34.948000     -5.227000      2.105000
H         -33.879000     -8.087000      1.731000
H         -35.172000     -7.356000      0.887000
C         -35.602000     -7.894000      2.973000
H         -36.349000     -7.166000      3.312000
C         -34.969000     -8.550000      4.198000
H         -36.190000     -8.707000      2.530000
H         -34.143000     -7.896000      4.504000
H         -34.544000     -9.517000      3.904000
H         -35.704000     -8.749000      4.988000
$end

--------------------------------------------------------------
 ----------------------------------------------------------------
             Standard Nuclear Orientation (Angstroms)
    I     Atom           X                Y                Z
 ----------------------------------------------------------------
    1      C      -5.4771642945    -5.9375612192    -0.7182145594
    2      C      -5.2890484457    -4.8557768862    -1.5354758911
    3      N      -4.4519122660    -6.5410202970    -0.1663328516
    4      C      -3.9367117501    -4.4559794759    -1.8711267402
    5      C      -3.1580820508    -6.0670359595    -0.3008959298
    6      C      -2.8316210843    -5.0031258509    -1.2061978233
    7      C      -1.4308938652    -4.2894672296    -1.2830524255
    8      C      -0.2842218972    -5.0228656028    -0.8682618471
    9      C      -1.2170202294    -2.9389299068    -1.6671643985
   10      N       0.9419301585    -4.4944705391    -0.7850104640
   11      N      -2.1904841182    -2.0204023606    -1.9390838789
   12      C       0.0741288331    -2.3774246934    -1.5313667775
   13      C       1.1626380360    -3.1792497183    -1.0852890437
   14      S      -1.4550288678    -0.6353585051    -2.2776885054
   15      N       0.0981634870    -1.0795689132    -1.9365219443
   16      C       2.5277708940    -2.6738137315    -0.8964193981
   17      S       3.0647385924    -0.9621525105    -0.8921118082
   18      C       3.6305594203    -3.4785451351    -0.7137836007
   19      C       4.7072051140    -1.3901108654    -0.7467282746
   20      S       3.8267168932    -5.2275644328    -0.9064017252
   21      C       4.8814125961    -2.7696579127    -0.5978299954
   22      C       5.7890304302    -0.4311657312    -1.0073030526
   23      C       5.6206671957    -5.0101736253    -0.9179580611
   24      C       6.0421251413    -3.7115462071    -0.6645670019
   25      N       6.9700776181    -0.8940583128    -1.4472030387
   26      S       5.3452682222     1.1538283713    -1.4242344589
   27      C       7.6210852216     0.1816389094    -2.0947287805
   28      C       6.8505107163     1.3523674599    -2.1806333380
   29      C      -6.8909876503    -6.3625432491    -0.3338387112
   30      H      -6.1688236811    -4.3693591976    -1.9467062006
   31      H      -3.8005293450    -3.6713120284    -2.6103786251
   32      H      -2.4229559495    -6.5665391854     0.3289994127
   33      H      -0.3844328439    -6.0662866315    -0.5735835089
   34      H       6.2194387589    -5.9112370748    -0.9489786184
   35      H       7.0484218543    -3.3229362030    -0.5606815358
   36      H       8.6247916795     0.0951907166    -2.4893641264
   37      H       7.2794568533     2.2439802254    -2.6168900146
   38      H      -7.6154802887    -5.9072463471    -1.0205119580
   39      C      -7.1854013492    -5.8860170580     1.1480210538
   40      H      -7.0369664222    -7.4489170561    -0.3647603807
   41      H      -7.2767490881    -4.7948473790     1.2065131226
   42      H      -6.3219906285    -6.1172861272     1.7837895218
   43      C      -8.5107888679    -6.5095536358     1.6679557242
   44      H      -9.3807893000    -6.3945191637     1.0102990369
   45      C      -8.7948676143    -6.1380990067     3.1610473906
   46      H      -8.2252635155    -7.5692519238     1.6885181045
   47      H      -8.8222716500    -5.0515281611     3.3093673702
   48      H      -7.9246710715    -6.4327718233     3.7601291114
   49      C     -10.1617382786    -6.7682501379     3.6675137162
   50      H     -10.5142975364    -6.1438881857     4.4978601031
   51      C     -10.0816471920    -8.2204251371     4.1205061991
   52      H     -10.9816924868    -6.6898700901     2.9441012028
   53      H      -9.5155312381    -8.2315961069     5.0604598874
   54      H      -9.4911637356    -8.7693982761     3.3756560259
   55      H     -11.0703989534    -8.6454306428     4.3315755585
   56      C       5.6831472479     1.8605850249     1.7798589849
   57      C       4.5747872804     1.0255127255     1.9517352112
   58      N       5.5076612748     3.1237607009     1.3581566196
   59      C       3.2580431689     1.5103224739     1.8268414448
   60      C       4.2710406938     3.5736574826     1.1047509680
   61      C       3.0655703486     2.7882963251     1.3373344998
   62      C       1.6499992134     3.2188100878     1.1611946087
   63      C       0.6023168666     2.3503370341     0.6370560248
   64      C       1.1827780899     4.5861507107     1.2551522727
   65      N      -0.6561292123     2.7188123441     0.4464611334
   66      N       2.0337152399     5.5145459322     1.6897662155
   67      C      -0.1819005191     4.8925691480     1.1910271171
   68      C      -1.1161253555     3.9673494829     0.7253796901
   69      S       0.9466593071     6.7353379173     1.9438810082
   70      N      -0.4148171172     6.2169856832     1.3466282079
   71      C      -2.4979648274     4.3301331963     0.3832734912
   72      S      -3.3422879018     5.8275280173     0.7056277931
   73      C      -3.4585155437     3.4537450124    -0.2262608167
   74      C      -4.7686306224     5.4055821104    -0.2769601649
   75      S      -3.3415103566     1.7532296267    -0.6758775524
   76      C      -4.6142583379     4.0665982720    -0.6992888029
   77      C      -5.9228459459     6.2490974055    -0.6119675288
   78      C      -4.8467781144     1.9006245513    -1.5239186560
   79      C      -5.3887967251     3.2057020226    -1.4649557896
   80      N      -5.7485580851     7.5771731977    -0.3577148364
   81      S      -7.5527551258     5.8577906680    -1.2450015740
   82      C      -6.8010847195     8.3848875719    -0.8706623715
   83      C      -7.7995305321     7.6286699715    -1.3541134031
   84      C       7.1970979054     1.5080906095     1.9152993545
   85      H       4.7387931125     0.0496949224     2.3992379509
   86      H       2.4355801714     0.8171013061     1.9719001572
   87      H       4.1546576859     4.5772014947     0.6983860934
   88      H       0.9380746185     1.3452525778     0.3856440765
   89      H      -5.2592555439     1.0138899273    -1.9872113029
   90      H      -6.2624325310     3.4699707126    -2.0497981086
   91      H      -6.7186699315     9.4614311542    -0.7986921134
   92      H      -8.8256671359     7.9032980307    -1.5579371004
   93      H       7.6472292994     1.7324015310     0.9408973129
   94      C       7.4126459653     0.0909863917     2.3440751347
   95      H       7.6396929268     2.2505743389     2.5899604240
   96      H       6.6911177030    -0.6177250320     1.9195293955
   97      H       7.1928105593     0.0515754821     3.4186058111
   98      C       8.8567397034    -0.3193037030     1.9728591412
   99      H       9.1468530647    -0.1538319748     0.9277168807
  100      C       8.9655748116    -1.8508397986     2.2305452043
  101      H       9.6153222812     0.1670271635     2.5975644805
  102      H       8.1196004895    -2.3997026329     1.7994720835
  103      H       8.8674341111    -2.0720412121     3.3001149017
  104      C      10.2448135398    -2.4738875398     1.6366590297
  105      H      11.1522753055    -1.9027302801     1.8673244338
  106      C      10.2616216851    -2.8387645391     0.1540153565
  107      H      10.3931322168    -3.4403648158     2.1335345120
  108      H       9.8192492660    -1.9866237526    -0.3768242830
  109      H       9.6148105094    -3.7096112959    -0.0053936431
  110      H      11.2648435091    -3.1158680091    -0.1933830296
 ----------------------------------------------------------------
 Molecular Point Group                 C1    NOp =  1
 Largest Abelian Subgroup              C1    NOp =  1
 Nuclear Repulsion Energy = 11715.4616005856 hartrees
 There are      270 alpha and      270 beta electrons
 Requested basis set is 6-31G(d,p)
 There are 406 shells and 1262 basis functions

 Total QAlloc Memory Limit  20000 MB
 Mega-Array Size      4888 MB
 MEM_STATIC part      5000 MB
 A cutoff of  1.0D-08 yielded  14300 shell pairs
 There are    147387 function pairs
 
 -------------------------------------------------------
 OpenMP Integral Computing Module                       
 Release: version 1.0, May 2013, Q-Chem Inc. Pittsburgh 
 -------------------------------------------------------
 Integral Job Info:
 Integral job number is                      11
 Integral operator is                         1
 short-range coefficients                     0
 long-range coefficients              100000000
 Omega coefficients                           0
 if combine SR and LR in K                    0
 Integral screening is                        0
 Integral computing path is                   2
 max size of driver memory is            800000
 size of driver memory is                593474
 size of scratch memory is             15166112
 max col of scratch BK array               1296
 max len of scratch array in speh3          155
 max len of scratch index in speh4           18
 max int batch size is                      520
 min int batch size is                       52
 fixed nKL is                                52
 max L of basis functions is                  2
 order of int derivative is                   0
 number of shells is                        406
 number of basis is                        1262
 number of cartesian basis is              1262
 number of contracted shell pairs         14300
 number of primitive shell pairs          45247
 maxK2 (contraction) of shell pair           36
 max number of K2 of shell pair               1
 max number of CS2 of shell pair           1445
 max number of PS2 of shell pair           8454
 mem total for path MDJ                  306792
 -------------------------------------------------------
 Smallest overlap matrix eigenvalue = 4.60E-04

 Scale SEOQF with 1.000000e-02/1.000000e-02/1.000000e-01

 Standard Electronic Orientation quadrupole field applied
 Nucleus-field energy     =    -0.0000000103 hartrees
 Guess from superposition of atomic densities
 Warning:  Energy on first SCF cycle will be non-variational
 A restricted hybrid HF-DFT SCF calculation will be
 performed using Pulay DIIS extrapolation
 Exchange:     0.2000 Hartree-Fock + 0.0800 Slater + 0.7200 B88
 Correlation:  0.1900 VWN1RPA + 0.8100 LYP
 Using SG-1 standard quadrature grid
 SCF converges when DIIS error is below 1.0E-05
 using 16 threads for integral computing 
 -------------------------------------------------------
 OpenMP BLAS3 based DFT computing Module                
 Release: version 1.0, May 2013, Q-Chem Inc. Pittsburgh 
 -------------------------------------------------------
 ---------------------------------------
  Cycle       Energy         DIIS Error
 ---------------------------------------
    1   -5679.5044040073      2.12E-02
    2   -5662.5045277724      2.13E-03
    3   -5660.9541406308      3.40E-03
    4   -5663.2843603947      9.99E-04
    5   -5663.4650005475      4.01E-04
    6   -5663.4832738030      2.65E-04
    7   -5663.4962399778      8.12E-05
    8   -5663.4974985255      2.60E-05
    9   -5663.4976253121      1.04E-05
   10   -5663.4976486631      3.94E-06 Convergence criterion met
 ---------------------------------------
 SCF time:  CPU 1144.44 s  wall 93.02 s
 SCF   energy in the final basis set = -5663.4976486631
 Total energy in the final basis set = -5663.4976486631
 
 --------------------------------------------------------------
 
                    Orbital Energies (a.u.)
 --------------------------------------------------------------
 
 Alpha MOs
 -- Occupied --
-88.991 -88.985 -88.933 -88.931 -88.929 -88.927 -88.917 -88.908
-14.393 -14.387 -14.383 -14.380 -14.351 -14.351 -14.350 -14.345
-14.328 -14.324 -10.281 -10.267 -10.266 -10.265 -10.259 -10.256
-10.255 -10.255 -10.251 -10.250 -10.244 -10.243 -10.242 -10.241
-10.236 -10.236 -10.235 -10.234 -10.234 -10.233 -10.232 -10.232
-10.231 -10.231 -10.230 -10.228 -10.227 -10.222 -10.220 -10.219
-10.216 -10.212 -10.211 -10.208 -10.207 -10.206 -10.198 -10.194
-10.186 -10.184 -10.180 -10.180 -10.179 -10.179 -10.178 -10.177
-10.174 -10.171 -10.169 -10.169  -8.046  -8.042  -7.993  -7.992
 -7.989  -7.987  -7.977  -7.967  -6.011  -6.007  -6.005  -6.004
 -6.002  -6.000  -5.957  -5.955  -5.954  -5.953  -5.952  -5.951
 -5.950  -5.949  -5.949  -5.947  -5.945  -5.944  -5.941  -5.937
 -5.933  -5.932  -5.928  -5.923  -1.057  -1.034  -0.966  -0.958
 -0.954  -0.949  -0.940  -0.934  -0.925  -0.913  -0.905  -0.895
 -0.850  -0.838  -0.830  -0.825  -0.816  -0.810  -0.808  -0.805
 -0.797  -0.796  -0.793  -0.789  -0.781  -0.776  -0.768  -0.762
 -0.752  -0.746  -0.744  -0.734  -0.724  -0.723  -0.711  -0.705
 -0.696  -0.692  -0.674  -0.673  -0.652  -0.647  -0.646  -0.645
 -0.637  -0.631  -0.627  -0.626  -0.612  -0.602  -0.598  -0.595
 -0.592  -0.589  -0.586  -0.580  -0.580  -0.576  -0.567  -0.564
 -0.546  -0.545  -0.544  -0.536  -0.525  -0.521  -0.519  -0.508
 -0.505  -0.505  -0.500  -0.496  -0.488  -0.485  -0.484  -0.476
 -0.473  -0.471  -0.469  -0.464  -0.461  -0.456  -0.452  -0.448
 -0.447  -0.441  -0.440  -0.439  -0.437  -0.433  -0.433  -0.431
 -0.429  -0.428  -0.423  -0.422  -0.421  -0.416  -0.415  -0.413
 -0.412  -0.408  -0.405  -0.403  -0.401  -0.401  -0.400  -0.397
 -0.394  -0.393  -0.390  -0.389  -0.387  -0.385  -0.382  -0.379
 -0.379  -0.377  -0.372  -0.368  -0.365  -0.362  -0.360  -0.360
 -0.354  -0.352  -0.351  -0.350  -0.348  -0.348  -0.343  -0.342
 -0.340  -0.336  -0.336  -0.334  -0.331  -0.328  -0.326  -0.325
 -0.321  -0.317  -0.307  -0.306  -0.305  -0.304  -0.300  -0.296
 -0.295  -0.293  -0.291  -0.289  -0.289  -0.285  -0.277  -0.275
 -0.272  -0.270  -0.267  -0.261  -0.260  -0.251  -0.248  -0.246
 -0.246  -0.243  -0.233  -0.232  -0.195  -0.194
 -- Virtual --
 -0.117  -0.113  -0.080  -0.072  -0.042  -0.033  -0.030  -0.027
 -0.021  -0.018  -0.017  -0.015  -0.010  -0.008  -0.005  -0.003
  0.006   0.014   0.026   0.028   0.029   0.031   0.038   0.041
  0.045   0.048   0.049   0.060   0.064   0.075   0.077   0.087
  0.091   0.095   0.099   0.100   0.101   0.102   0.104   0.105
  0.110   0.112   0.113   0.116   0.120   0.120   0.121   0.125
  0.126   0.126   0.127   0.133   0.136   0.138   0.144   0.148
  0.150   0.153   0.153   0.155   0.156   0.158   0.160   0.161
  0.163   0.167   0.168   0.172   0.174   0.175   0.178   0.180
  0.185   0.185   0.187   0.190   0.192   0.193   0.197   0.200
  0.203   0.205   0.206   0.210   0.210   0.215   0.216   0.216
  0.219   0.222   0.224   0.225   0.226   0.232   0.234   0.237
  0.241   0.243   0.245   0.250   0.254   0.255   0.257   0.259
  0.261   0.263   0.265   0.266   0.267   0.273   0.275   0.277
  0.280   0.283   0.287   0.289   0.290   0.294   0.299   0.307
  0.309   0.311   0.314   0.317   0.319   0.322   0.325   0.326
  0.328   0.329   0.334   0.338   0.341   0.346   0.346   0.349
  0.353   0.355   0.358   0.361   0.362   0.365   0.368   0.371
  0.373   0.377   0.383   0.386   0.392   0.394   0.400   0.403
  0.407   0.412   0.415   0.418   0.424   0.429   0.433   0.438
  0.446   0.447   0.451   0.460   0.464   0.466   0.468   0.473
  0.473   0.475   0.477   0.479   0.487   0.489   0.492   0.495
  0.498   0.501   0.508   0.510   0.510   0.512   0.513   0.516
  0.517   0.517   0.518   0.524   0.526   0.530   0.532   0.537
  0.538   0.540   0.542   0.542   0.544   0.546   0.548   0.549
  0.551   0.554   0.557   0.559   0.561   0.562   0.563   0.565
  0.569   0.569   0.570   0.574   0.575   0.578   0.581   0.584
  0.585   0.586   0.588   0.589   0.589   0.591   0.592   0.593
  0.598   0.599   0.602   0.605   0.607   0.610   0.612   0.614
  0.617   0.618   0.621   0.624   0.626   0.628   0.630   0.632
  0.633   0.635   0.638   0.641   0.644   0.646   0.647   0.650
  0.651   0.653   0.658   0.664   0.669   0.673   0.675   0.677
  0.681   0.684   0.684   0.686   0.689   0.690   0.692   0.698
  0.699   0.702   0.706   0.706   0.713   0.714   0.718   0.719
  0.724   0.728   0.729   0.733   0.740   0.743   0.743   0.746
  0.748   0.749   0.752   0.757   0.759   0.761   0.767   0.770
  0.772   0.774   0.779   0.782   0.784   0.790   0.792   0.794
  0.795   0.799   0.801   0.803   0.806   0.808   0.808   0.813
  0.813   0.816   0.817   0.818   0.819   0.821   0.824   0.826
  0.828   0.831   0.832   0.832   0.833   0.835   0.838   0.840
  0.843   0.845   0.847   0.848   0.848   0.850   0.852   0.854
  0.859   0.863   0.864   0.866   0.867   0.872   0.873   0.875
  0.880   0.882   0.883   0.889   0.891   0.894   0.895   0.896
  0.899   0.900   0.902   0.904   0.905   0.908   0.912   0.913
  0.915   0.918   0.921   0.924   0.927   0.930   0.931   0.935
  0.938   0.940   0.940   0.945   0.945   0.947   0.948   0.949
  0.953   0.956   0.957   0.958   0.960   0.963   0.966   0.968
  0.971   0.973   0.976   0.979   0.980   0.983   0.985   0.988
  0.989   0.994   0.997   0.999   1.002   1.004   1.008   1.010
  1.012   1.013   1.016   1.020   1.022   1.028   1.028   1.029
  1.032   1.037   1.038   1.046   1.049   1.052   1.054   1.058
  1.059   1.061   1.066   1.068   1.074   1.077   1.079   1.086
  1.087   1.089   1.094   1.095   1.104   1.104   1.107   1.116
  1.119   1.126   1.133   1.137   1.143   1.145   1.150   1.151
  1.156   1.161   1.164   1.165   1.173   1.176   1.178   1.185
  1.186   1.188   1.196   1.207   1.209   1.216   1.220   1.222
  1.232   1.236   1.242   1.247   1.254   1.255   1.259   1.263
  1.266   1.270   1.273   1.278   1.281   1.283   1.287   1.294
  1.297   1.304   1.309   1.316   1.319   1.322   1.326   1.330
  1.335   1.339   1.342   1.345   1.351   1.355   1.360   1.373
  1.376   1.377   1.383   1.390   1.393   1.398   1.402   1.406
  1.407   1.413   1.416   1.420   1.423   1.430   1.433   1.436
  1.443   1.446   1.448   1.453   1.456   1.457   1.459   1.462
  1.474   1.474   1.481   1.483   1.487   1.491   1.500   1.508
  1.513   1.526   1.530   1.540   1.542   1.554   1.555   1.557
  1.564   1.570   1.574   1.576   1.577   1.591   1.593   1.608
  1.611   1.613   1.624   1.627   1.629   1.642   1.644   1.647
  1.649   1.651   1.661   1.668   1.670   1.678   1.683   1.684
  1.685   1.690   1.696   1.698   1.698   1.700   1.706   1.708
  1.713   1.717   1.722   1.725   1.728   1.731   1.735   1.737
  1.746   1.749   1.755   1.761   1.763   1.766   1.769   1.773
  1.775   1.781   1.785   1.786   1.790   1.795   1.804   1.808
  1.811   1.819   1.823   1.829   1.835   1.838   1.840   1.846
  1.847   1.851   1.851   1.854   1.859   1.865   1.865   1.869
  1.870   1.876   1.880   1.881   1.884   1.892   1.894   1.896
  1.898   1.900   1.903   1.909   1.912   1.912   1.915   1.920
  1.921   1.923   1.926   1.931   1.933   1.937   1.940   1.942
  1.953   1.953   1.958   1.960   1.967   1.968   1.971   1.980
  1.986   1.988   1.997   2.005   2.007   2.012   2.012   2.019
  2.027   2.028   2.030   2.035   2.043   2.050   2.057   2.059
  2.070   2.078   2.079   2.081   2.086   2.087   2.093   2.095
  2.098   2.100   2.105   2.108   2.111   2.112   2.119   2.123
  2.124   2.126   2.129   2.136   2.149   2.155   2.156   2.160
  2.163   2.163   2.166   2.168   2.171   2.174   2.178   2.180
  2.181   2.185   2.187   2.193   2.197   2.206   2.207   2.211
  2.214   2.223   2.224   2.229   2.238   2.241   2.242   2.247
  2.249   2.257   2.258   2.263   2.266   2.266   2.274   2.278
  2.282   2.286   2.290   2.291   2.293   2.298   2.299   2.306
  2.308   2.312   2.315   2.317   2.321   2.324   2.326   2.329
  2.334   2.336   2.341   2.343   2.345   2.347   2.352   2.353
  2.359   2.363   2.370   2.384   2.388   2.389   2.391   2.394
  2.394   2.395   2.398   2.404   2.406   2.408   2.409   2.415
  2.417   2.419   2.422   2.425   2.427   2.433   2.436   2.438
  2.445   2.448   2.450   2.454   2.457   2.460   2.463   2.464
  2.472   2.474   2.477   2.480   2.485   2.491   2.494   2.499
  2.503   2.507   2.509   2.513   2.513   2.520   2.522   2.525
  2.529   2.530   2.533   2.543   2.547   2.548   2.551   2.557
  2.561   2.572   2.574   2.576   2.578   2.585   2.591   2.600
  2.608   2.610   2.621   2.622   2.622   2.625   2.626   2.638
  2.642   2.647   2.653   2.657   2.660   2.663   2.664   2.667
  2.671   2.671   2.680   2.681   2.684   2.688   2.690   2.694
  2.698   2.702   2.708   2.712   2.717   2.718   2.720   2.722
  2.735   2.741   2.756   2.760   2.762   2.770   2.771   2.789
  2.793   2.799   2.800   2.802   2.810   2.823   2.823   2.836
  2.846   2.847   2.848   2.851   2.857   2.859   2.865   2.872
  2.878   2.884   2.886   2.892   2.893   2.904   2.906   2.909
  2.916   2.920   2.924   2.927   2.931   2.933   2.938   2.942
  2.948   2.952   2.958   2.961   2.968   2.980   3.004   3.015
  3.021   3.035   3.043   3.051   3.054   3.059   3.066   3.075
  3.148   3.167   3.178   3.181   3.206   3.209   3.215   3.234
  3.239   3.239   3.251   3.254   3.263   3.271   3.278   3.279
  3.288   3.304   3.307   3.317   3.319   3.322   3.329   3.335
  3.338   3.355   3.358   3.361   3.382   3.397   3.402   3.404
  3.413   3.429   3.457   3.461   3.478   3.482   3.534   3.538
  3.542   3.552   3.554   3.562   3.572   3.588   3.593   3.606
  3.612   3.618   3.722   3.722   3.855   3.863   3.890   3.914
  3.914   3.930   3.936   3.945   3.952   3.957   3.959   3.977
  3.998   4.025   4.054   4.063   4.077   4.088   4.104   4.106
  4.117   4.129   4.139   4.148   4.152   4.159   4.182   4.187
  4.204   4.219   4.233   4.244   4.247   4.252   4.259   4.274
  4.277   4.284   4.320   4.334   4.353   4.367   4.374   4.386
  4.408   4.412   4.434   4.445   4.447   4.472   4.479   4.488
  4.496   4.507   4.519   4.539   4.605   4.610   4.655   4.657
  4.666   4.679   4.688   4.698   4.742   4.753   4.773   4.806
 --------------------------------------------------------------
 
          Ground-State Mulliken Net Atomic Charges

     Atom                 Charge (a.u.)
  ----------------------------------------
      1 C                     0.296748
      2 C                    -0.121048
      3 N                    -0.493972
      4 C                    -0.090165
      5 C                     0.051751
      6 C                     0.046257
      7 C                     0.030292
      8 C                     0.064998
      9 C                     0.208157
     10 N                    -0.529665
     11 N                    -0.551369
     12 C                     0.204833
     13 C                     0.311962
     14 S                     0.639373
     15 N                    -0.578218
     16 C                    -0.219204
     17 S                     0.331426
     18 C                    -0.117995
     19 C                    -0.240325
     20 S                     0.280152
     21 C                     0.113038
     22 C                     0.060442
     23 C                    -0.318990
     24 C                    -0.042631
     25 N                    -0.429228
     26 S                     0.319469
     27 C                     0.092419
     28 C                    -0.300837
     29 C                    -0.219418
     30 H                     0.083599
     31 H                     0.115662
     32 H                     0.106056
     33 H                     0.118113
     34 H                     0.132070
     35 H                     0.136878
     36 H                     0.119415
     37 H                     0.137639
     38 H                     0.092166
     39 C                    -0.184478
     40 H                     0.112799
     41 H                     0.090076
     42 H                     0.117647
     43 C                    -0.175100
     44 H                     0.092929
     45 C                    -0.184838
     46 H                     0.100872
     47 H                     0.089120
     48 H                     0.094261
     49 C                    -0.180945
     50 H                     0.086858
     51 C                    -0.311053
     52 H                     0.090854
     53 H                     0.102414
     54 H                     0.106036
     55 H                     0.100600
     56 C                     0.254405
     57 C                    -0.135743
     58 N                    -0.476522
     59 C                    -0.091870
     60 C                     0.096339
     61 C                     0.041522
     62 C                     0.009199
     63 C                     0.071391
     64 C                     0.182334
     65 N                    -0.531085
     66 N                    -0.519942
     67 C                     0.168084
     68 C                     0.308207
     69 S                     0.599873
     70 N                    -0.498249
     71 C                    -0.224365
     72 S                     0.373947
     73 C                    -0.156918
     74 C                    -0.225749
     75 S                     0.306567
     76 C                     0.170177
     77 C                     0.047156
     78 C                    -0.320340
     79 C                    -0.096430
     80 N                    -0.438040
     81 S                     0.262200
     82 C                     0.135279
     83 C                    -0.307183
     84 C                    -0.212264
     85 H                     0.093629
     86 H                     0.109501
     87 H                     0.115902
     88 H                     0.121509
     89 H                     0.136253
     90 H                     0.112809
     91 H                     0.128804
     92 H                     0.133547
     93 H                     0.124418
     94 C                    -0.187317
     95 H                     0.122577
     96 H                     0.106969
     97 H                     0.099514
     98 C                    -0.176979
     99 H                     0.102545
    100 C                    -0.183862
    101 H                     0.096826
    102 H                     0.093754
    103 H                     0.090790
    104 C                    -0.186598
    105 H                     0.086661
    106 C                    -0.318426
    107 H                     0.085443
    108 H                     0.109002
    109 H                     0.101926
    110 H                     0.100924
  ----------------------------------------
  Sum of atomic charges =     0.000000

 -----------------------------------------------------------------
                    Cartesian Multipole Moments
 -----------------------------------------------------------------
    Charge (ESU x 10^10)
                 0.0000
    Dipole Moment (Debye)
         X      -1.4509      Y       2.4849      Z      -1.6962
       Tot       3.3402
    Quadrupole Moments (Debye-Ang)
        XX    -395.9062     XY     -19.2501     YY    -452.3967
        XZ      10.1644     YZ      -7.5865     ZZ    -442.5009
    Octopole Moments (Debye-Ang^2)
       XXX    -189.6279    XXY     182.4582    XYY     -84.9699
       YYY     276.6701    XXZ    -169.3618    XYZ       3.4995
       YYZ     -51.9653    XZZ      -0.5120    YZZ      31.1303
       ZZZ       8.1316
    Hexadecapole Moments (Debye-Ang^3)
      XXXX  -72653.4730   XXXY   -1888.6798   XXYY  -19815.8392
      XYYY   -2730.5005   YYYY  -51037.6198   XXXZ     220.7939
      XXYZ    -665.2717   XYYZ     364.0509   YYYZ    -140.5140
      XXZZ  -13941.0507   XYZZ     141.9288   YYZZ   -9886.9827
      XZZZ       1.9466   YZZZ      30.1079   ZZZZ   -6923.6531
 -----------------------------------------------------------------
Archival summary:
1\1\mn246\SP\ProcedureUnspecified\6-31G**\8105042\afmv_a\FriOct1202:20:082018FriOct1202:20:082018\0\\#,ProcedureUnspecified,6-31G**,\\0,1\S\C,1,1.70352\C,2,1.39845,1,112.149\C,3,1.44243,2,111.606,1,-4.61978,0\C,4,1.37735,3,114.698,2,2.16655,0\C,5,1.4679,4,124.09,3,-177.794,0\N,6,1.367,5,116.947,4,-14.1038,0\C,7,1.33775,6,120.953,5,-176.875,0\H,8,1.08885,7,116.489,6,177.586,0\C,8,1.42295,7,123.585,6,-0.910727,0\C,10,1.42029,8,116.589,7,-2.28005,0\N,11,1.36575,10,125.876,8,171.565,0\C,11,1.41449,10,119.272,8,4.35067,0\N,13,1.35984,11,111.494,10,179.64,0\C,2,1.46895,1,122.068,3,-169.325,0\N,15,1.34263,2,118.743,1,151.258,0\C,16,1.41429,15,107.019,2,-157.754,0\H,17,1.08196,16,122.224,15,-176.061,0\C,17,1.4042,16,114.176,15,4.20549,0\H,19,1.08134,17,119.634,16,-177.099,0\C,3,1.49628,2,135.468,1,-167.236,0\H,21,1.08372,3,119.361,2,-19.1534,0\C,21,1.38862,3,111.185,2,158.33,0\H,23,1.08231,21,128.017,3,175.129,0\C,10,1.57393,8,117.984,7,174.445,0\C,25,1.40097,10,120.115,8,165.595,0\H,26,1.08662,25,120.402,10,-13.2923,0\C,25,1.43459,10,124.722,8,-26.408,0\H,28,1.08935,25,123.462,10,8.31035,0\N,28,1.38447,25,121.863,10,-171.829,0\C,30,1.31144,28,122.151,25,9.1923,0\C,31,1.36878,30,120.497,28,-4.66637,0\H,32,1.08615,31,117.948,30,178.199,0\C,31,1.52553,30,119.361,28,169.29,0\H,34,1.09657,31,113.095,30,48.401,0\H,34,1.09713,31,109.797,30,168.836,0\C,34,1.58419,31,108.913,30,-70.9686,0\H,37,1.09655,34,111.389,31,-69.757,0\H,37,1.09689,34,109.418,31,44.8539,0\C,37,1.55428,34,110.531,31,170.073,0\H,40,1.09665,37,115.709,34,50.7283,0\H,40,1.09768,37,99.8895,34,-65.5777,0\C,40,1.56461,37,112.26,34,-176.367,0\H,43,1.0968,40,108.265,37,54.9449,0\H,43,1.09699,40,111.637,37,-56.8432,0\C,43,1.58806,40,111.495,37,-179.25,0\H,46,1.09626,43,113.888,40,42.6897,0\H,46,1.09709,43,106.987,40,155.336,0\C,46,1.5233,43,115.332,40,-82.5622,0\H,49,1.09673,46,112.288,43,172.34,0\H,49,1.09733,46,106.951,43,-70.2909,0\H,49,1.09765,46,107.654,43,44.8372,0\S,12,1.60434,11,107.211,10,-178.188,0\S,19,1.69626,17,111.229,16,-1.82664,0\S,4,1.77049,3,113.463,2,-166.739,0\H,22,2.65409,21,149.961,3,-159.264,0\C,56,1.09643,22,119.021,21,167.027,0\H,57,1.0971,56,107.981,22,24.96,0\H,57,1.09724,56,107.023,22,148.462,0\C,57,1.52697,56,108.933,22,-90.0193,0\H,60,1.09677,57,108.635,56,-157.59,0\H,60,1.0968,57,103.169,56,-46.9973,0\C,60,1.54186,57,118.665,56,71.1515,0\H,63,1.0966,60,111.618,57,-152.43,0\H,63,1.0967,60,106.64,57,-41.4516,0\C,63,1.55687,60,113.064,57,81.9685,0\H,66,1.09646,63,107.077,60,70.7222,0\H,66,1.09721,63,106.71,60,-43.6168,0\C,66,1.54646,63,106.651,60,-167.98,0\H,69,1.09687,66,110.483,63,45.7885,0\H,69,1.0975,66,114.364,63,-69.7841,0\C,69,1.49616,66,108.483,63,171.392,0\H,72,1.09651,69,114.009,66,78.1054,0\H,72,1.09654,69,112.91,66,-40.3503,0\C,72,1.56033,69,112.249,66,-160.046,0\N,75,1.34322,72,111.498,69,178.251,0\C,76,1.34009,75,119.712,72,-175.84,0\H,77,1.08893,76,118.593,75,175.826,0\C,75,1.39834,72,128.571,69,2.83422,0\H,79,1.08599,75,117.875,72,-11.6818,0\C,79,1.40871,75,121.632,72,-178.281,0\H,81,1.08538,79,118.466,75,179.934,0\C,81,1.38198,79,118.675,75,-9.37076,0\C,83,1.49004,81,116.191,79,-176.917,0\C,84,1.44801,83,124.869,81,-150.828,0\N,85,1.33225,84,118.237,83,8.7077,0\C,85,1.40013,84,121.21,83,174.405,0\N,87,1.35371,85,112.12,84,-177.741,0\C,87,1.39486,85,121.529,84,15.3881,0\N,89,1.3595,87,116.81,85,-5.50184,0\C,90,1.32506,89,123.177,87,-2.1828,0\H,91,1.0891,90,121.079,89,178.944,0\C,89,1.46906,87,122.952,85,167.06,0\C,93,1.43605,89,125.261,87,-173.285,0\C,94,1.39107,93,115.543,89,167.976,0\C,95,1.38827,94,112.202,93,-170.044,0\H,96,1.08403,95,126.585,94,171.471,0\C,95,1.41247,94,114.002,93,11.4874,0\C,96,1.41439,95,112.419,94,-2.81991,0\H,99,1.08216,96,128.893,95,-175.677,0\C,98,1.46832,95,124.214,94,178.166,0\N,101,1.36338,98,114.618,95,166.493,0\C,102,1.42244,101,113.035,98,-171.368,0\H,103,1.08209,102,118.985,101,174.763,0\C,103,1.34257,102,111.119,101,-7.09671,0\H,105,1.08163,103,129.078,102,-161.564,0\S,88,1.57449,87,102.528,85,15.8811,0\S,99,1.73399,96,112.999,95,2.1144,0\S,93,1.749,89,128.506,87,10.9327,0\S,105,1.79132,103,115.623,102,0.459995,0\\\@

 Total job time:  96.18s(wall), 1153.99s(cpu) 
 Fri Oct 12 02:20:08 2018

        *************************************************************
        *                                                           *
        *  Thank you very much for using Q-Chem.  Have a nice day.  *
        *                                                           *
        *************************************************************


