
Running Job 1 of 1 ./9/5.qcin
qchem ./9/5.qcin_65482.0 /tmpu/cab_g/afmv_a/scratch_qchem/qchem65482/ 1
/tmpu/appuserlic/qchem4.4/serial-multicore/exe/qcprog.exe_s ./9/5.qcin_65482.0 /tmpu/cab_g/afmv_a/scratch_qchem/qchem65482/
Check license passed

                  Welcome to Q-Chem
     A Quantum Leap Into The Future Of Chemistry


 Q-Chem 4.4, Q-Chem, Inc., Pleasanton, CA (2016)

 Y. Shao,  Z. Gan,  E. Epifanovsky,  A. T. B. Gilbert,  M. Wormit,  
 J. Kussmann,  A. W. Lange,  A. Behn,  J. Deng,  X. Feng,  D. Ghosh,  
 M. Goldey,  P. R. Horn,  L. D. Jacobson,  I. Kaliman,  F. Rob,  
 R. Z. Khaliullin,  T. Kus,  A. Landau,  J. Liu,  E. I. Proynov,  Y. M. Rhee,  
 R. M. Richard,  M. A. Rohrdanz,  R. P. Steele,  E. J. Sundstrom,  
 H. L. Woodcock III,  P. M. Zimmerman,  D. Zuev,  B. Albrecht,  E. Alguire,  
 B. Austin,  S. A. Baeppler,  G. J. O. Beran,  Y. A. Bernard,  E. Berquist,  
 K. Brandhorst,  K. B. Bravaya,  S. T. Brown,  D. Casanova,  C.-M. Chang,  
 Y. Chen,  S. H. Chien,  K. D. Closser,  M. P. Coons,  D. L. Crittenden,  
 S. Dasgupta,  M. Diedenhofen,  R. A. DiStasio Jr.,  H. Do,  A. D. Dutoi,  
 R. G. Edgar,  P.-T. Fang,  S. Fatehi,  Q. Feng,  L. Fusti-Molnar,  
 A. Ghysels,  A. Golubeva-Zadorozhnaya,  J. Gomes,  A. Gunina,  
 M. W. D. Hanson-Heine,  P. H. P. Harbach,  A. W. Hauser,  J. E. Herr,  
 E. G. Hohenstein,  Z. C. Holden,  K. Hui,  T.-C. Jagau,  H. Ji,  B. Kaduk,  
 K. Khistyaev,  Jaehoon Kim,  Jihan Kim,  R. A. King,  P. Klunzinger,  
 K. Koh,  D. Kosenkov,  T. Kowalczyk,  C. M. Krauter,  A. Kunitsa,  
 K. U. Lao,  A. Laurent,  K. V. Lawler,  J. Lee,  D. Lefrancois,  S. Lehtola,  
 S. V. Levchenko,  C. Y. Lin,  Y.-S. Lin,  F. Liu,  E. Livshits,  
 R. C. Lochan,  A. Luenser,  P. Manohar,  S. F. Manzer,  S.-P. Mao,  Y. Mao,  
 N. Mardirossian,  A. V. Marenich,  L. A. Martinez-Martinez,  S. A. Maurer,  
 N. J. Mayhall,  J.-M. Mewes,  A. F. Morrison,  K. Nanda,  T. S. Nguyen-Beck,  
 C. M. Oana,  R. Olivares-Amaya,  D. P. O'Neill,  J. A. Parkhill,  
 T. M. Perrine,  R. Peverati,  P. A. Pieniazek,  F. Plasser,  A. Prociuk,  
 D. R. Rehn,  E. Rosta,  N. J. Russ,  N. Sergueev,  S. M. Sharada,  
 S. Sharma,  D. W. Small,  A. Sodt,  T. Stauch,  T. Stein,  D. Stuck,  
 Y.-C. Su,  A. J. W. Thom,  T. Tsuchimochi,  L. Vogt,  O. Vydrov,  T. Wang,  
 M. A. Watson,  J. Wenzel,  A. White,  C. F. Williams,  V. Vanovschi,  
 K. Yao,  S. Yeganeh,  S. R. Yost,  Z.-Q. You,  I. Y. Zhang,  X. Zhang,  
 Y. Zhao,  B. R. Brooks,  G. K. L. Chan,  D. M. Chipman,  C. J. Cramer,  
 W. A. Goddard III,  M. S. Gordon,  W. J. Hehre,  A. Klamt,  
 H. F. Schaefer III,  M. W. Schmidt,  C. D. Sherrill,  D. G. Truhlar,  
 A. Warshel,  X. Xu,  A. Aspuru-Guzik,  R. Baer,  A. T. Bell,  N. A. Besley,  
 J.-D. Chai,  A. Dreuw,  B. D. Dunietz,  T. R. Furlani,  S. R. Gwaltney,  
 C.-P. Hsu,  Y. Jung,  J. Kong,  D. S. Lambrecht,  W. Liang,  C. Ochsenfeld,  
 V. A. Rassolov,  L. V. Slipchenko,  J. E. Subotnik,  T. Van Voorhis,  
 J. M. Herbert,  A. I. Krylov,  P. M. W. Gill,  M. Head-Gordon

 Contributors to earlier versions of Q-Chem not listed above: 
 R. D. Adamson,  J. Baker,  E. F. C. Byrd,  A. K. Chakraborty,  C.-L. Cheng,  
 H. Dachsel,  R. J. Doerksen,  G. Hawkins,  A. Heyden,  S. Hirata,  
 G. Kedziora,  F. J. Keil,  C. Kelley,  P. P. Korambath,  W. Kurlancheek,  
 A. M. Lee,  M. S. Lee,  D. Liotard,  I. Lotan,  P. E. Maslen,  N. Nair,  
 D. Neuhauser,  R. Olson,  B. Peters,  J. Ritchie,  N. E. Schultz,  
 N. Shenvi,  A. C. Simmonett,  K. S. Thanthiriwatte,  Q. Wu,  W. Zhang

 Please cite Q-Chem as follows:
 Y. Shao et al., Mol. Phys. 113, 184-215 (2015)
 DOI: 10.1080/00268976.2014.952696

 Q-Chem 4.4.2 for Intel X86 Linux

 Parts of Q-Chem use Armadillo 5.200.1 (Boston Tea Smuggler).
 http://arma.sourceforge.net/

 Q-Chem begins on Fri Oct 12 02:45:57 2018  

Host: 
0

     Scratch files written to /tmpu/cab_g/afmv_a/scratch_qchem/qchem65482//
 Dec716 11556_ 22328  22283 4050   
Processing $rem in /tmpu/appuserlic/qchem4.4/serial-multicore/config/preferences.
 MEM_TOTAL  2000 
FILE_GEOM_ORG=        593

Checking the input file for inconsistencies... 	...done.

--------------------------------------------------------------
User input:
--------------------------------------------------------------
$comment
SP
$end

$rem
MEM_STATIC 5000
MEM_TOTAL 20000
JOBTYPE SP
EXCHANGE B3LYP
BASIS 6-31g(d,p)
$end

$molecule
0 1
C         -26.751000     -1.295000     -4.803000
C         -25.966000     -2.361000     -4.299000
N         -26.258000     -0.297000     -5.490000
C         -24.606000     -2.454000     -4.618000
C         -24.910000     -0.309000     -5.667000
C         -24.008000     -1.339000     -5.321000
C         -22.583000     -1.208000     -5.452000
C         -21.950000      0.031000     -5.277000
C         -21.686000     -2.254000     -5.787000
N         -20.654000      0.251000     -5.435000
N         -22.069000     -3.505000     -5.992000
C         -20.328000     -2.052000     -5.904000
C         -19.803000     -0.732000     -5.713000
S         -20.678000     -4.365000     -6.328000
N         -19.589000     -3.162000     -6.164000
C         -18.382000     -0.353000     -5.833000
S         -17.032000     -1.432000     -6.158000
C         -17.955000      0.923000     -5.893000
C         -15.827000     -0.121000     -5.961000
S         -18.780000      2.394000     -6.003000
C         -16.571000      1.054000     -5.965000
C         -14.419000     -0.383000     -6.050000
C         -17.218000      3.309000     -5.958000
C         -16.131000      2.442000     -6.117000
N         -13.675000      0.725000     -6.182000
S         -13.665000     -1.943000     -6.336000
C         -12.337000      0.298000     -6.341000
C         -12.228000     -1.035000     -6.468000
C         -28.344000     -1.462000     -4.805000
H         -26.513000     -3.107000     -3.731000
H         -24.065000     -3.306000     -4.216000
H         -24.627000      0.627000     -6.146000
H         -22.452000      0.972000     -5.055000
H         -17.211000      4.371000     -5.752000
H         -15.098000      2.763000     -6.046000
H         -11.527000      1.009000     -6.436000
H         -11.306000     -1.600000     -6.511000
H         -28.792000     -0.713000     -5.470000
C         -29.060000     -1.237000     -3.481000
H         -28.636000     -2.477000     -5.101000
H         -28.650000     -0.339000     -3.003000
H         -28.881000     -2.012000     -2.725000
C         -30.617000     -1.030000     -3.679000
H         -31.110000     -0.555000     -2.821000
C         -31.346000     -2.349000     -3.905000
H         -30.772000     -0.355000     -4.531000
H         -30.942000     -2.808000     -4.816000
H         -32.394000     -2.065000     -4.064000
C         -31.266000     -3.272000     -2.674000
H         -30.292000     -3.718000     -2.437000
C         -32.122000     -4.529000     -2.839000
H         -31.452000     -2.653000     -1.788000
H         -32.470000     -5.036000     -1.931000
H         -31.690000     -5.288000     -3.504000
H         -33.051000     -4.278000     -3.364000
C         -13.833000     -4.735000    -10.399000
C         -14.141000     -4.117000     -9.239000
N         -14.760000     -4.943000    -11.332000
C         -15.422000     -3.565000     -9.003000
C         -16.045000     -4.438000    -11.156000
C         -16.443000     -3.788000     -9.974000
C         -17.841000     -3.316000     -9.759000
C         -18.075000     -2.064000     -9.238000
C         -19.029000     -4.057000    -10.105000
N         -19.286000     -1.539000     -9.019000
N         -19.021000     -5.356000    -10.508000
C         -20.283000     -3.524000     -9.958000
C         -20.440000     -2.155000     -9.370000
S         -20.538000     -5.754000    -10.832000
N         -21.244000     -4.379000    -10.255000
C         -21.732000     -1.617000     -9.104000
S         -23.345000     -2.502000     -9.075000
C         -21.894000     -0.296000     -8.890000
C         -24.137000     -0.935000     -8.766000
S         -20.789000      1.081000     -8.660000
C         -23.233000      0.064000     -8.728000
C         -25.559000     -0.775000     -8.786000
C         -22.169000      2.156000     -8.418000
C         -23.385000      1.460000     -8.363000
N         -26.016000      0.360000     -9.232000
S         -26.623000     -2.105000     -8.615000
C         -27.342000      0.311000     -9.364000
C         -27.871000     -0.949000     -9.078000
C         -12.452000     -5.289000    -10.806000
H         -13.433000     -3.961000     -8.431000
H         -15.618000     -3.072000     -8.055000
H         -16.829000     -4.857000    -11.785000
H         -17.279000     -1.369000     -8.976000
H         -22.079000      3.234000     -8.404000
H         -24.281000      1.977000     -8.041000
H         -27.989000      1.149000     -9.586000
H         -28.897000     -1.288000     -9.011000
H         -12.345000     -5.072000    -11.876000
C         -12.242000     -6.749000    -10.436000
H         -11.714000     -4.704000    -10.244000
H         -13.165000     -7.206000    -10.815000
H         -12.189000     -6.843000     -9.344000
C         -10.931000     -7.364000    -10.993000
H         -10.127000     -6.618000    -10.978000
C         -11.279000     -7.823000    -12.476000
H         -10.537000     -8.234000    -10.453000
H         -12.191000     -7.351000    -12.861000
H         -11.344000     -8.916000    -12.548000
C         -10.235000     -7.230000    -13.351000
H         -10.343000     -6.161000    -13.131000
C         -10.526000     -7.500000    -14.868000
H          -9.212000     -7.576000    -13.156000
H          -9.896000     -6.785000    -15.411000
H         -11.577000     -7.365000    -15.150000
H         -10.185000     -8.489000    -15.200000
$end

--------------------------------------------------------------
 ----------------------------------------------------------------
             Standard Nuclear Orientation (Angstroms)
    I     Atom           X                Y                Z
 ----------------------------------------------------------------
    1      C      -7.0706808539    -0.1144001704    -0.9894011365
    2      C      -6.2854727175     0.2063036645    -2.1239469632
    3      N      -6.5887644517    -0.6844013905     0.0847856211
    4      C      -4.8976099678     0.0236771136    -2.1017089121
    5      C      -5.2675786747    -1.0027845906     0.0438310027
    6      C      -4.3333458529    -0.6624696808    -0.9589724660
    7      C      -2.9786533025    -1.1417903356    -0.9615808747
    8      C      -2.6561926873    -2.4059032518    -0.4473117944
    9      C      -1.8504491616    -0.4230369197    -1.4322176173
   10      N      -1.4310932201    -2.9001763933    -0.3589638624
   11      N      -1.9269383251     0.7881854972    -1.9621276707
   12      C      -0.5755753811    -0.9445535306    -1.3951464939
   13      C      -0.3738771333    -2.2469280023    -0.8315468555
   14      S      -0.3671488075     1.2067125140    -2.3855291315
   15      N       0.3939302676    -0.1661897549    -1.9428960991
   16      C       0.9293093451    -2.9254562329    -0.6952147507
   17      S       2.4867325484    -2.3281401395    -1.2520023677
   18      C       1.1188897076    -4.0283152358     0.0543626675
   19      C       3.3280371573    -3.8397881299    -0.7865113278
   20      S       0.1099671238    -4.8650185446     1.1214000580
   21      C       2.4180477980    -4.5263492467     0.0101882384
   22      C       4.7253066604    -4.0279085933    -1.0534900292
   23      C       1.4020087182    -6.0965461153     1.4264612990
   24      C       2.6261764573    -5.6719382507     0.8976319241
   25      N       5.2640072759    -5.0597932999    -0.3874272699
   26      S       5.7972908688    -2.8872745053    -1.8495526738
   27      C       6.6452104060    -5.0590700168    -0.6876461738
   28      C       7.0238868376    -3.9794420189    -1.3918524975
   29      C      -8.5387092219     0.5169715509    -0.8807528031
   30      H      -6.8292748121     0.6591766986    -2.9470716785
   31      H      -4.3510879600     0.3075219376    -2.9966585257
   32      H      -5.0318792960    -1.5695985259     0.9431606227
   33      H      -3.3614343214    -3.1056237848    -0.0003281112
   34      H       1.1584609129    -7.0421718254     1.8920850558
   35      H       3.5198602105    -6.2855343698     0.8980216183
   36      H       7.3067272889    -5.8199551012    -0.2950964293
   37      H       8.0051906167    -3.8021211343    -1.8122787063
   38      H      -8.9036088318     0.4254892537     0.1499795889
   39      C      -9.6334081841    -0.1434586922    -1.7064180356
   40      H      -8.5458488724     1.5631940480    -1.2101044573
   41      H      -9.5465555964    -1.2322339268    -1.6063524739
   42      H      -9.5430620396     0.0040497249    -2.7900604310
   43      C     -11.0784461345     0.2880511247    -1.2247889254
   44      H     -11.8743137120    -0.3891188168    -1.5607556934
   45      C     -11.4621751415     1.6723026181    -1.7335893304
   46      H     -11.1006365838     0.2628365439    -0.1273255735
   47      H     -10.7376725505     2.3931672093    -1.3345050824
   48      H     -12.4534232675     1.8630052655    -1.3031237070
   49      C     -11.5749298447     1.7128445608    -3.2696012860
   50      H     -10.6466028785     1.6307092632    -3.8485864644
   51      C     -12.1068183954     3.0556226495    -3.7736365764
   52      H     -12.1159213794     0.8114957672    -3.5820937047
   53      H     -12.6041284219     3.0767184687    -4.7508032479
   54      H     -11.3727759269     3.8714824471    -3.7516264610
   55      H     -12.8749534220     3.4307205786    -3.0873879884
   56      C       7.3093133798     1.5295390503    -0.2567554672
   57      C       6.5749498500     0.5206287611    -0.7717294804
   58      N       6.7428763484     2.4824034963     0.4809981753
   59      C       5.2027610375     0.3627746627    -0.4658848359
   60      C       5.3926242211     2.3947769736     0.8071373870
   61      C       4.5615150364     1.3771982914     0.3053215357
   62      C       3.0996764661     1.3300153141     0.5955193320
   63      C       2.5046845200     0.1423356788     0.9548279290
   64      C       2.2147417639     2.4688343069     0.5844344469
   65      N       1.2080898741    -0.0071794365     1.2490974557
   66      N       2.5716447204     3.7010949542     0.1327398856
   67      C       0.8969577722     2.3650377579     0.9462156343
   68      C       0.3341084948     1.0255853412     1.3117589481
   69      S       1.3092186220     4.6621474534     0.3502885929
   70      N       0.2319787947     3.4959392919     0.7991793129
   71      C      -1.0545374969     0.8661137554     1.5868864152
   72      S      -2.4212266429     2.0505000495     1.2474385041
   73      C      -1.5059308086    -0.2340308823     2.2217146238
   74      C      -3.5368307572     0.9039793749     2.0343005015
   75      S      -0.7800539171    -1.7837736165     2.7130945136
   76      C      -2.8768933553    -0.1834786268     2.4799222245
   77      C      -4.8975960303     1.2348274389     2.3291588234
   78      C      -2.3411168475    -2.3241458705     3.3373295288
   79      C      -3.3757761165    -1.4263824113     3.0380003310
   80      N      -5.4033158005     0.7261574054     3.4161235474
   81      S      -5.7086448897     2.5203195637     1.5417918539
   82      C      -6.6039969360     1.2508122621     3.6635161349
   83      C      -6.9573892926     2.2521822905     2.7570896853
   84      C       8.8251026180     1.7491011684    -0.4408789630
   85      H       6.9806485601    -0.2559267271    -1.4126929196
   86      H       4.6571856097    -0.4697509732    -0.9011060649
   87      H       4.9112393569     3.3057370169     1.1596688210
   88      H       3.0532634822    -0.7925943494     1.0560799159
   89      H      -2.4542548866    -3.2056234493     3.9542388108
   90      H      -4.4042089871    -1.7234502880     3.2049299785
   91      H      -7.2994754000     0.9148784800     4.4208768152
   92      H      -7.8809294057     2.8038803936     2.6354802179
   93      H       9.1943985981     2.1177343034     0.5240915500
   94      C       9.1787289485     2.6308332024    -1.6283540316
   95      H       9.2526362792     0.7581609962    -0.6357264507
   96      H       8.5015307547     3.4814288390    -1.4789931624
   97      H       8.9315180286     2.1037798959    -2.5585209914
   98      C      10.6827581658     3.0004404730    -1.7204495201
   99      H      11.3007120845     2.1551282377    -1.3937429555
  100      C      10.8642723582     4.2630019381    -0.7696261165
  101      H      11.0545474925     3.2706538054    -2.7166891757
  102      H      10.0321509615     4.3844824309    -0.0656591634
  103      H      11.0203016483     5.1794413431    -1.3525941066
  104      C      11.9914007213     3.9386382045     0.1422838689
  105      H      11.6343825007     3.0160739465     0.6158218083
  106      C      12.2023389860     5.0532378008     1.2248931191
  107      H      12.9599244505     3.7851560572    -0.3503366913
  108      H      12.8226083988     4.5852986772     1.9990202611
  109      H      11.2704173322     5.4275854820     1.6650474611
  110      H      12.7963743178     5.8999260318     0.8576506052
 ----------------------------------------------------------------
 Molecular Point Group                 C1    NOp =  1
 Largest Abelian Subgroup              C1    NOp =  1
 Nuclear Repulsion Energy = 12663.4747211179 hartrees
 There are      270 alpha and      270 beta electrons
 Requested basis set is 6-31G(d,p)
 There are 406 shells and 1262 basis functions

 Total QAlloc Memory Limit  20000 MB
 Mega-Array Size      4888 MB
 MEM_STATIC part      5000 MB
 A cutoff of  1.0D-08 yielded  15625 shell pairs
 There are    170384 function pairs
 
 -------------------------------------------------------
 OpenMP Integral Computing Module                       
 Release: version 1.0, May 2013, Q-Chem Inc. Pittsburgh 
 -------------------------------------------------------
 Integral Job Info:
 Integral job number is                      11
 Integral operator is                         1
 short-range coefficients                     0
 long-range coefficients              100000000
 Omega coefficients                           0
 if combine SR and LR in K                    0
 Integral screening is                        0
 Integral computing path is                   2
 max size of driver memory is            800000
 size of driver memory is                593474
 size of scratch memory is             15166112
 max col of scratch BK array               1296
 max len of scratch array in speh3          155
 max len of scratch index in speh4           18
 max int batch size is                      520
 min int batch size is                       52
 fixed nKL is                                52
 max L of basis functions is                  2
 order of int derivative is                   0
 number of shells is                        406
 number of basis is                        1262
 number of cartesian basis is              1262
 number of contracted shell pairs         15625
 number of primitive shell pairs          48600
 maxK2 (contraction) of shell pair           36
 max number of K2 of shell pair               1
 max number of CS2 of shell pair           1879
 max number of PS2 of shell pair          10014
 mem total for path MDJ                  397064
 -------------------------------------------------------
 Smallest overlap matrix eigenvalue = 3.24E-04

 Scale SEOQF with 1.000000e-02/1.000000e-02/1.000000e-01

 Standard Electronic Orientation quadrupole field applied
 Nucleus-field energy     =    -0.0000000704 hartrees
 Guess from superposition of atomic densities
 Warning:  Energy on first SCF cycle will be non-variational
 A restricted hybrid HF-DFT SCF calculation will be
 performed using Pulay DIIS extrapolation
 Exchange:     0.2000 Hartree-Fock + 0.0800 Slater + 0.7200 B88
 Correlation:  0.1900 VWN1RPA + 0.8100 LYP
 Using SG-1 standard quadrature grid
 SCF converges when DIIS error is below 1.0E-05
 using 16 threads for integral computing 
 -------------------------------------------------------
 OpenMP BLAS3 based DFT computing Module                
 Release: version 1.0, May 2013, Q-Chem Inc. Pittsburgh 
 -------------------------------------------------------
 ---------------------------------------
  Cycle       Energy         DIIS Error
 ---------------------------------------
    1   -5680.3286856888      2.16E-02
    2   -5662.4106274436      2.23E-03
    3   -5660.1590108756      3.90E-03
    4   -5663.2238544778      1.09E-03
    5   -5663.4538615250      3.98E-04
    6   -5663.4714564584      2.71E-04
    7   -5663.4849706417      1.04E-04
    8   -5663.4868918760      3.58E-05
    9   -5663.4871191644      1.49E-05
   10   -5663.4871647827      4.83E-06 Convergence criterion met
 ---------------------------------------
 SCF time:  CPU 1343.93 s  wall 111.58 s
 SCF   energy in the final basis set = -5663.4871647827
 Total energy in the final basis set = -5663.4871647827
 
 --------------------------------------------------------------
 
                    Orbital Energies (a.u.)
 --------------------------------------------------------------
 
 Alpha MOs
 -- Occupied --
-88.984 -88.983 -88.936 -88.926 -88.925 -88.918 -88.907 -88.904
-14.386 -14.376 -14.375 -14.373 -14.349 -14.341 -14.339 -14.339
-14.329 -14.323 -10.273 -10.262 -10.261 -10.258 -10.249 -10.249
-10.247 -10.247 -10.240 -10.236 -10.236 -10.235 -10.232 -10.231
-10.231 -10.230 -10.229 -10.228 -10.227 -10.227 -10.224 -10.224
-10.222 -10.220 -10.219 -10.219 -10.218 -10.217 -10.215 -10.215
-10.212 -10.209 -10.208 -10.203 -10.199 -10.198 -10.198 -10.192
-10.189 -10.183 -10.181 -10.181 -10.181 -10.180 -10.177 -10.175
-10.174 -10.170 -10.167 -10.165  -8.039  -8.039  -7.997  -7.988
 -7.982  -7.977  -7.966  -7.963  -6.004  -6.004  -5.999  -5.998
 -5.997  -5.996  -5.961  -5.958  -5.954  -5.951  -5.948  -5.947
 -5.945  -5.943  -5.941  -5.939  -5.938  -5.934  -5.931  -5.928
 -5.927  -5.924  -5.922  -5.920  -1.038  -1.034  -0.984  -0.968
 -0.962  -0.950  -0.944  -0.928  -0.914  -0.909  -0.902  -0.896
 -0.838  -0.836  -0.833  -0.829  -0.819  -0.810  -0.809  -0.805
 -0.804  -0.804  -0.795  -0.793  -0.782  -0.778  -0.767  -0.764
 -0.750  -0.747  -0.738  -0.733  -0.725  -0.718  -0.712  -0.704
 -0.695  -0.690  -0.675  -0.669  -0.652  -0.647  -0.643  -0.639
 -0.632  -0.631  -0.623  -0.621  -0.614  -0.610  -0.603  -0.595
 -0.592  -0.590  -0.589  -0.580  -0.579  -0.570  -0.567  -0.558
 -0.553  -0.552  -0.539  -0.536  -0.524  -0.520  -0.513  -0.510
 -0.507  -0.505  -0.496  -0.491  -0.487  -0.483  -0.478  -0.474
 -0.473  -0.471  -0.469  -0.464  -0.460  -0.459  -0.454  -0.447
 -0.446  -0.442  -0.440  -0.436  -0.434  -0.433  -0.428  -0.425
 -0.424  -0.422  -0.420  -0.418  -0.417  -0.415  -0.415  -0.412
 -0.411  -0.410  -0.407  -0.402  -0.400  -0.398  -0.397  -0.397
 -0.394  -0.393  -0.391  -0.389  -0.388  -0.387  -0.385  -0.382
 -0.379  -0.379  -0.372  -0.366  -0.363  -0.362  -0.355  -0.354
 -0.352  -0.351  -0.348  -0.346  -0.345  -0.343  -0.338  -0.336
 -0.334  -0.330  -0.328  -0.328  -0.325  -0.324  -0.323  -0.320
 -0.312  -0.312  -0.308  -0.307  -0.306  -0.304  -0.301  -0.297
 -0.295  -0.291  -0.290  -0.289  -0.286  -0.284  -0.277  -0.276
 -0.271  -0.266  -0.263  -0.262  -0.256  -0.249  -0.248  -0.245
 -0.241  -0.239  -0.230  -0.228  -0.193  -0.189
 -- Virtual --
 -0.110  -0.106  -0.076  -0.068  -0.038  -0.033  -0.028  -0.026
 -0.025  -0.023  -0.014  -0.008  -0.004  -0.003  -0.002   0.000
  0.008   0.014   0.024   0.030   0.034   0.038   0.041   0.044
  0.051   0.053   0.060   0.070   0.077   0.081   0.085   0.091
  0.096   0.098   0.100   0.104   0.108   0.111   0.112   0.114
  0.115   0.117   0.119   0.120   0.122   0.124   0.125   0.128
  0.128   0.132   0.134   0.135   0.138   0.144   0.145   0.146
  0.149   0.154   0.157   0.158   0.159   0.161   0.163   0.166
  0.167   0.169   0.170   0.175   0.178   0.179   0.181   0.182
  0.188   0.188   0.190   0.193   0.195   0.199   0.201   0.205
  0.208   0.210   0.211   0.212   0.214   0.218   0.219   0.221
  0.222   0.224   0.228   0.232   0.235   0.240   0.242   0.244
  0.247   0.250   0.251   0.253   0.256   0.258   0.259   0.262
  0.266   0.268   0.269   0.274   0.275   0.278   0.279   0.281
  0.284   0.286   0.288   0.289   0.294   0.299   0.302   0.304
  0.309   0.311   0.312   0.314   0.316   0.321   0.326   0.328
  0.332   0.335   0.338   0.340   0.343   0.348   0.352   0.355
  0.358   0.361   0.366   0.366   0.374   0.375   0.379   0.382
  0.389   0.390   0.395   0.397   0.404   0.409   0.414   0.418
  0.424   0.428   0.437   0.438   0.441   0.445   0.447   0.450
  0.454   0.455   0.462   0.463   0.465   0.469   0.475   0.476
  0.481   0.482   0.489   0.489   0.494   0.498   0.503   0.506
  0.507   0.511   0.513   0.514   0.516   0.519   0.522   0.523
  0.526   0.528   0.529   0.530   0.532   0.533   0.538   0.539
  0.543   0.544   0.545   0.548   0.548   0.553   0.554   0.556
  0.556   0.558   0.560   0.562   0.564   0.568   0.568   0.570
  0.576   0.578   0.580   0.583   0.586   0.590   0.592   0.592
  0.595   0.598   0.599   0.603   0.606   0.606   0.608   0.610
  0.614   0.616   0.618   0.619   0.621   0.625   0.627   0.628
  0.630   0.633   0.635   0.640   0.641   0.642   0.643   0.646
  0.648   0.651   0.653   0.655   0.657   0.662   0.665   0.666
  0.670   0.672   0.674   0.677   0.679   0.682   0.684   0.686
  0.686   0.689   0.693   0.697   0.702   0.706   0.707   0.712
  0.714   0.718   0.718   0.720   0.722   0.726   0.726   0.729
  0.730   0.737   0.739   0.740   0.746   0.747   0.750   0.753
  0.755   0.758   0.761   0.764   0.767   0.771   0.772   0.775
  0.779   0.783   0.785   0.786   0.790   0.794   0.799   0.801
  0.804   0.804   0.806   0.812   0.814   0.815   0.818   0.820
  0.823   0.823   0.825   0.825   0.828   0.830   0.831   0.832
  0.837   0.838   0.839   0.840   0.842   0.846   0.847   0.852
  0.853   0.855   0.856   0.857   0.859   0.861   0.862   0.863
  0.866   0.869   0.870   0.871   0.875   0.876   0.878   0.881
  0.882   0.885   0.886   0.887   0.888   0.889   0.893   0.899
  0.903   0.904   0.906   0.907   0.908   0.913   0.914   0.918
  0.919   0.926   0.926   0.931   0.933   0.933   0.934   0.937
  0.940   0.944   0.947   0.949   0.953   0.955   0.957   0.958
  0.962   0.966   0.969   0.969   0.973   0.976   0.977   0.979
  0.982   0.984   0.989   0.993   0.995   0.997   0.998   1.000
  1.003   1.005   1.010   1.011   1.013   1.016   1.018   1.021
  1.025   1.027   1.028   1.034   1.037   1.039   1.045   1.046
  1.048   1.053   1.056   1.059   1.060   1.067   1.070   1.074
  1.080   1.084   1.089   1.092   1.094   1.102   1.104   1.106
  1.110   1.113   1.117   1.119   1.124   1.127   1.131   1.137
  1.139   1.143   1.146   1.150   1.155   1.156   1.167   1.170
  1.172   1.175   1.187   1.192   1.193   1.196   1.201   1.207
  1.210   1.213   1.221   1.221   1.223   1.233   1.237   1.240
  1.244   1.250   1.258   1.262   1.265   1.273   1.279   1.281
  1.284   1.287   1.289   1.293   1.295   1.303   1.311   1.315
  1.319   1.324   1.325   1.332   1.335   1.340   1.342   1.346
  1.347   1.350   1.353   1.355   1.356   1.364   1.367   1.372
  1.378   1.383   1.387   1.389   1.395   1.398   1.404   1.405
  1.409   1.413   1.415   1.418   1.429   1.433   1.435   1.445
  1.450   1.453   1.463   1.470   1.472   1.477   1.479   1.485
  1.488   1.499   1.505   1.511   1.515   1.516   1.533   1.536
  1.540   1.543   1.546   1.555   1.562   1.568   1.572   1.587
  1.589   1.592   1.601   1.604   1.610   1.617   1.621   1.624
  1.628   1.635   1.637   1.639   1.643   1.645   1.651   1.659
  1.663   1.665   1.672   1.676   1.684   1.688   1.690   1.695
  1.696   1.701   1.705   1.708   1.712   1.716   1.720   1.723
  1.733   1.735   1.741   1.747   1.751   1.756   1.760   1.761
  1.766   1.770   1.772   1.778   1.785   1.786   1.790   1.795
  1.797   1.799   1.803   1.808   1.812   1.813   1.818   1.821
  1.823   1.833   1.839   1.842   1.844   1.847   1.857   1.858
  1.859   1.864   1.865   1.870   1.871   1.879   1.880   1.884
  1.887   1.890   1.897   1.902   1.904   1.906   1.907   1.910
  1.912   1.922   1.923   1.925   1.931   1.934   1.936   1.940
  1.940   1.943   1.945   1.949   1.953   1.954   1.956   1.964
  1.966   1.969   1.973   1.976   1.983   1.987   1.992   2.000
  2.005   2.008   2.015   2.019   2.024   2.028   2.036   2.041
  2.043   2.043   2.045   2.049   2.056   2.065   2.072   2.075
  2.077   2.079   2.094   2.095   2.100   2.109   2.111   2.113
  2.116   2.117   2.119   2.127   2.130   2.131   2.133   2.136
  2.137   2.141   2.149   2.150   2.155   2.163   2.166   2.170
  2.173   2.177   2.181   2.184   2.197   2.198   2.204   2.206
  2.210   2.213   2.216   2.218   2.223   2.226   2.229   2.232
  2.235   2.240   2.243   2.249   2.255   2.261   2.263   2.265
  2.267   2.276   2.279   2.280   2.284   2.288   2.290   2.292
  2.296   2.301   2.303   2.304   2.304   2.308   2.310   2.315
  2.322   2.326   2.329   2.330   2.336   2.339   2.343   2.345
  2.346   2.350   2.357   2.363   2.366   2.368   2.369   2.374
  2.376   2.380   2.382   2.388   2.396   2.398   2.400   2.401
  2.408   2.409   2.410   2.411   2.417   2.422   2.426   2.432
  2.436   2.436   2.439   2.442   2.445   2.448   2.450   2.453
  2.458   2.461   2.470   2.471   2.475   2.476   2.482   2.483
  2.489   2.495   2.497   2.500   2.504   2.506   2.510   2.514
  2.517   2.523   2.527   2.531   2.532   2.536   2.545   2.549
  2.550   2.553   2.559   2.563   2.564   2.570   2.571   2.579
  2.585   2.587   2.589   2.596   2.600   2.601   2.611   2.612
  2.613   2.623   2.626   2.632   2.636   2.639   2.646   2.648
  2.652   2.654   2.655   2.656   2.662   2.668   2.671   2.675
  2.680   2.682   2.687   2.692   2.701   2.703   2.705   2.709
  2.712   2.716   2.724   2.726   2.726   2.729   2.735   2.739
  2.747   2.752   2.759   2.767   2.779   2.788   2.790   2.795
  2.799   2.804   2.808   2.817   2.822   2.824   2.826   2.828
  2.837   2.840   2.849   2.855   2.863   2.871   2.874   2.877
  2.882   2.886   2.893   2.898   2.908   2.912   2.921   2.922
  2.927   2.930   2.935   2.939   2.944   2.947   2.953   2.957
  2.961   2.974   2.988   2.993   2.996   3.003   3.015   3.034
  3.047   3.054   3.057   3.061   3.090   3.093   3.100   3.118
  3.161   3.166   3.167   3.191   3.212   3.222   3.240   3.248
  3.256   3.256   3.260   3.273   3.277   3.280   3.286   3.287
  3.296   3.304   3.309   3.314   3.320   3.328   3.343   3.360
  3.361   3.371   3.375   3.386   3.389   3.393   3.414   3.421
  3.440   3.467   3.471   3.479   3.486   3.497   3.512   3.543
  3.565   3.575   3.580   3.582   3.586   3.588   3.592   3.595
  3.605   3.605   3.731   3.758   3.873   3.881   3.912   3.913
  3.951   3.960   3.963   3.974   3.985   3.992   4.010   4.024
  4.033   4.077   4.081   4.093   4.103   4.111   4.113   4.117
  4.141   4.156   4.165   4.182   4.185   4.191   4.199   4.210
  4.222   4.240   4.252   4.264   4.275   4.276   4.295   4.305
  4.324   4.329   4.338   4.349   4.388   4.396   4.411   4.421
  4.438   4.459   4.465   4.477   4.485   4.501   4.503   4.510
  4.517   4.548   4.567   4.570   4.601   4.612   4.684   4.695
  4.706   4.718   4.720   4.722   4.736   4.761   4.804   4.838
 --------------------------------------------------------------
 
          Ground-State Mulliken Net Atomic Charges

     Atom                 Charge (a.u.)
  ----------------------------------------
      1 C                     0.272642
      2 C                    -0.113164
      3 N                    -0.475944
      4 C                    -0.057349
      5 C                     0.051853
      6 C                     0.033291
      7 C                     0.052920
      8 C                     0.047910
      9 C                     0.272436
     10 N                    -0.527245
     11 N                    -0.583688
     12 C                     0.211308
     13 C                     0.339094
     14 S                     0.586230
     15 N                    -0.574433
     16 C                    -0.207360
     17 S                     0.291706
     18 C                    -0.084373
     19 C                    -0.239942
     20 S                     0.276161
     21 C                     0.135538
     22 C                     0.065496
     23 C                    -0.312541
     24 C                    -0.054197
     25 N                    -0.446933
     26 S                     0.286093
     27 C                     0.126393
     28 C                    -0.299950
     29 C                    -0.224464
     30 H                     0.088634
     31 H                     0.116072
     32 H                     0.101107
     33 H                     0.114141
     34 H                     0.131415
     35 H                     0.129097
     36 H                     0.119443
     37 H                     0.129527
     38 H                     0.114882
     39 C                    -0.187027
     40 H                     0.105482
     41 H                     0.096619
     42 H                     0.092747
     43 C                    -0.190166
     44 H                     0.089640
     45 C                    -0.167018
     46 H                     0.087260
     47 H                     0.090527
     48 H                     0.094113
     49 C                    -0.167394
     50 H                     0.097571
     51 C                    -0.329019
     52 H                     0.094411
     53 H                     0.101756
     54 H                     0.103451
     55 H                     0.097137
     56 C                     0.270286
     57 C                    -0.113128
     58 N                    -0.485401
     59 C                    -0.060093
     60 C                     0.056990
     61 C                     0.029730
     62 C                     0.041401
     63 C                     0.060473
     64 C                     0.198797
     65 N                    -0.539320
     66 N                    -0.542891
     67 C                     0.212857
     68 C                     0.306781
     69 S                     0.588703
     70 N                    -0.588314
     71 C                    -0.228062
     72 S                     0.329289
     73 C                    -0.107927
     74 C                    -0.234432
     75 S                     0.308586
     76 C                     0.171113
     77 C                     0.072680
     78 C                    -0.315588
     79 C                    -0.061085
     80 N                    -0.423859
     81 S                     0.274006
     82 C                     0.143178
     83 C                    -0.311583
     84 C                    -0.205256
     85 H                     0.074097
     86 H                     0.094131
     87 H                     0.119772
     88 H                     0.128898
     89 H                     0.133784
     90 H                     0.121460
     91 H                     0.118082
     92 H                     0.127251
     93 H                     0.119315
     94 C                    -0.175628
     95 H                     0.083001
     96 H                     0.118120
     97 H                     0.079989
     98 C                    -0.190631
     99 H                     0.093601
    100 C                    -0.164593
    101 H                     0.090655
    102 H                     0.107319
    103 H                     0.089444
    104 C                    -0.173303
    105 H                     0.094977
    106 C                    -0.328757
    107 H                     0.089242
    108 H                     0.096436
    109 H                     0.102905
    110 H                     0.100609
  ----------------------------------------
  Sum of atomic charges =     0.000000

 -----------------------------------------------------------------
                    Cartesian Multipole Moments
 -----------------------------------------------------------------
    Charge (ESU x 10^10)
                 0.0000
    Dipole Moment (Debye)
         X      -1.9569      Y      -0.6228      Z      -2.0489
       Tot       2.9009
    Quadrupole Moments (Debye-Ang)
        XX    -399.9856     XY     -29.8143     YY    -434.5586
        XZ     -11.8752     YZ      -8.4976     ZZ    -442.1885
    Octopole Moments (Debye-Ang^2)
       XXX    -107.1934    XXY    -100.7493    XYY      -2.7454
       YYY     -37.9142    XXZ    -103.2879    XYZ       0.5821
       YYZ      56.4382    XZZ     -56.4434    YZZ      -8.6446
       ZZZ     -21.2348
    Hexadecapole Moments (Debye-Ang^3)
      XXXX  -86604.3787   XXXY   -2382.1049   XXYY  -18389.7019
      XYYY    -481.5260   YYYY  -19713.7928   XXXZ   -1528.3990
      XXYZ      44.4508   XYYZ    -176.6541   YYYZ    -452.4712
      XXZZ  -16161.2299   XYZZ     -10.9658   YYZZ   -4691.1210
      XZZZ     -92.8963   YZZZ    -153.9053   ZZZZ   -8044.5374
 -----------------------------------------------------------------
Archival summary:
1\1\mn246\SP\ProcedureUnspecified\6-31G**\8105042\afmv_a\FriOct1202:47:522018FriOct1202:47:522018\0\\#,ProcedureUnspecified,6-31G**,\\0,1\S\C,1,1.78276\C,2,1.34784,1,111.002\C,3,1.39598,2,116.674,1,1.78865,0\C,4,1.34799,3,112.732,2,-1.95275,0\C,5,1.42459,4,120.579,3,-176.283,0\N,6,1.35439,5,123.545,4,-21.9413,0\C,7,1.33795,6,123.388,5,-178.127,0\H,8,1.08871,7,111.832,6,-174.138,0\C,8,1.37612,7,124.951,6,4.46088,0\C,2,1.43111,1,122.498,3,-170.477,0\N,11,1.3023,2,116.802,1,145.49,0\C,12,1.33345,11,110.538,2,-171.737,0\H,13,1.08173,12,125.918,11,-171.237,0\C,13,1.39615,12,112.934,11,3.88029,0\H,15,1.08263,13,130.87,12,-174.153,0\C,10,1.44227,8,114.721,7,-1.54572,0\N,17,1.3601,10,123.844,8,173.246,0\C,17,1.37048,10,121.88,8,-1.907,0\N,19,1.32013,17,112.959,10,176.381,0\C,3,1.45091,2,130.539,1,172.193,0\H,21,1.08342,3,128.356,2,-0.113283,0\C,21,1.40218,3,112.14,2,-177.997,0\H,23,1.08184,21,124.489,3,-165.722,0\C,10,1.49111,8,120.133,7,-179.263,0\C,25,1.40642,10,122.194,8,135.2,0\H,26,1.08897,25,117.357,10,18.0184,0\N,26,1.39184,25,122.359,10,176.508,0\C,28,1.33157,26,119.832,25,4.71116,0\C,29,1.34996,28,120.981,26,-4.47467,0\H,30,1.08557,29,123.818,28,-177.333,0\C,30,1.41469,29,121.909,28,5.34315,0\H,32,1.08636,30,119.079,29,179.609,0\C,29,1.54264,28,112.474,26,176.376,0\H,34,1.09668,29,106.001,28,-155.071,0\H,34,1.09701,29,105.88,28,-39.1539,0\C,34,1.52072,29,113.842,28,87.4317,0\H,37,1.09732,34,109.332,29,68.0685,0\H,37,1.09746,34,101.515,29,-48.5796,0\C,37,1.55151,34,114.198,29,-172.862,0\H,40,1.09689,37,110.173,34,-36.3287,0\H,40,1.09715,37,116.172,34,-156.348,0\C,40,1.59093,37,105.318,34,84.2393,0\H,43,1.0967,40,112.642,37,-17.5003,0\H,43,1.0973,40,111.192,37,107.662,0\C,43,1.48567,40,106.268,37,-128.235,0\H,46,1.09673,43,101.637,40,57.6457,0\H,46,1.09739,43,115.124,40,-62.7823,0\C,46,1.56808,43,111.755,40,175.027,0\H,49,1.09652,46,113.921,43,-42.7718,0\H,49,1.0968,46,105.076,43,-163.307,0\H,49,1.09755,46,112.963,43,82.7591,0\S,18,1.60146,17,106.962,10,178.129,0\S,11,1.71179,2,121.962,1,-19.6482,0\S,23,1.76595,21,112.39,3,9.13062,0\H,22,2.35228,21,95.0031,3,-60.1994,0\C,56,1.08886,22,152.37,21,72.1286,0\N,57,1.35962,56,107.9,22,86.5356,0\C,58,1.30806,57,115.805,56,173.416,0\C,57,1.41217,56,124.663,22,-92.725,0\C,59,1.41654,58,123.515,57,2.06153,0\H,61,1.08552,59,115.093,58,-178.854,0\C,61,1.4,59,120.481,58,5.50804,0\H,63,1.08637,61,116.843,59,178.804,0\C,60,1.43699,57,122.996,56,-6.10839,0\C,65,1.4023,60,121.118,57,-32.2912,0\H,66,1.08939,65,125.494,60,1.20326,0\N,66,1.324,65,125.014,60,176.969,0\C,68,1.32958,66,121.912,65,3.77301,0\C,65,1.41808,60,125.56,57,146.271,0\N,70,1.32428,65,123.396,60,1.60247,0\C,70,1.37792,65,122.366,60,-179.55,0\N,72,1.35861,70,115.63,65,-176.81,0\C,69,1.47556,68,116.327,66,178.647,0\C,74,1.34689,69,123.522,68,11.1428,0\C,75,1.39205,74,113.995,69,-178.205,0\C,76,1.39075,75,116.886,74,0.212961,0\C,77,1.43493,76,132.766,75,-178.409,0\N,78,1.34113,77,113.553,76,1.09625,0\C,79,1.41345,78,106.656,77,176.354,0\H,80,1.08196,79,121.334,78,177.992,0\C,80,1.34347,79,112.779,78,-7.17626,0\H,82,1.0822,80,126.221,79,174.107,0\C,76,1.46398,75,113.166,74,-176.26,0\H,84,1.08405,76,124.079,75,-170.684,0\C,84,1.39948,76,110.006,75,-8.5007,0\H,86,1.08182,84,128.666,76,-162.351,0\C,59,1.60173,58,116.983,57,168.968,0\H,88,1.09686,59,111.197,58,-127.047,0\H,88,1.09724,59,109.613,58,-3.85512,0\C,88,1.52193,59,116.833,58,113.463,0\H,91,1.09681,88,108.924,59,-44.3038,0\H,91,1.09736,88,114.72,59,69.9253,0\C,91,1.58313,88,111.914,59,-164.103,0\H,94,1.09765,91,113.612,88,161.428,0\H,94,1.09798,91,108.438,88,43.7474,0\C,94,1.5239,91,112.077,88,-78.4457,0\H,97,1.09719,94,108.004,91,60.8587,0\H,97,1.09738,94,104.734,91,177.905,0\C,97,1.54068,94,112.037,91,-64.4592,0\H,100,1.0967,97,107.371,94,-43.7341,0\H,100,1.09716,97,117.531,94,70.2107,0\C,100,1.52971,97,112.151,94,-173.768,0\H,103,1.09621,100,109.739,97,37.5478,0\H,103,1.09664,100,117.915,97,155.635,0\H,103,1.09769,100,114.412,97,-75.9179,0\S,73,1.63096,72,104.992,70,-3.22456,0\S,75,1.69014,74,132.275,69,6.62832,0\S,82,1.70495,80,116.918,79,3.04099,0\S,74,1.75851,69,126.637,68,-178.643,0\\\@

 Total job time:  114.80s(wall), 1353.70s(cpu) 
 Fri Oct 12 02:47:52 2018

        *************************************************************
        *                                                           *
        *  Thank you very much for using Q-Chem.  Have a nice day.  *
        *                                                           *
        *************************************************************


