
Running Job 1 of 1 ./9/70.qcin
qchem ./9/70.qcin_756.0 /tmpu/cab_g/afmv_a/scratch_qchem/qchem756/ 1
/tmpu/appuserlic/qchem4.4/serial-multicore/exe/qcprog.exe_s ./9/70.qcin_756.0 /tmpu/cab_g/afmv_a/scratch_qchem/qchem756/
Check license passed

                  Welcome to Q-Chem
     A Quantum Leap Into The Future Of Chemistry


 Q-Chem 4.4, Q-Chem, Inc., Pleasanton, CA (2016)

 Y. Shao,  Z. Gan,  E. Epifanovsky,  A. T. B. Gilbert,  M. Wormit,  
 J. Kussmann,  A. W. Lange,  A. Behn,  J. Deng,  X. Feng,  D. Ghosh,  
 M. Goldey,  P. R. Horn,  L. D. Jacobson,  I. Kaliman,  F. Rob,  
 R. Z. Khaliullin,  T. Kus,  A. Landau,  J. Liu,  E. I. Proynov,  Y. M. Rhee,  
 R. M. Richard,  M. A. Rohrdanz,  R. P. Steele,  E. J. Sundstrom,  
 H. L. Woodcock III,  P. M. Zimmerman,  D. Zuev,  B. Albrecht,  E. Alguire,  
 B. Austin,  S. A. Baeppler,  G. J. O. Beran,  Y. A. Bernard,  E. Berquist,  
 K. Brandhorst,  K. B. Bravaya,  S. T. Brown,  D. Casanova,  C.-M. Chang,  
 Y. Chen,  S. H. Chien,  K. D. Closser,  M. P. Coons,  D. L. Crittenden,  
 S. Dasgupta,  M. Diedenhofen,  R. A. DiStasio Jr.,  H. Do,  A. D. Dutoi,  
 R. G. Edgar,  P.-T. Fang,  S. Fatehi,  Q. Feng,  L. Fusti-Molnar,  
 A. Ghysels,  A. Golubeva-Zadorozhnaya,  J. Gomes,  A. Gunina,  
 M. W. D. Hanson-Heine,  P. H. P. Harbach,  A. W. Hauser,  J. E. Herr,  
 E. G. Hohenstein,  Z. C. Holden,  K. Hui,  T.-C. Jagau,  H. Ji,  B. Kaduk,  
 K. Khistyaev,  Jaehoon Kim,  Jihan Kim,  R. A. King,  P. Klunzinger,  
 K. Koh,  D. Kosenkov,  T. Kowalczyk,  C. M. Krauter,  A. Kunitsa,  
 K. U. Lao,  A. Laurent,  K. V. Lawler,  J. Lee,  D. Lefrancois,  S. Lehtola,  
 S. V. Levchenko,  C. Y. Lin,  Y.-S. Lin,  F. Liu,  E. Livshits,  
 R. C. Lochan,  A. Luenser,  P. Manohar,  S. F. Manzer,  S.-P. Mao,  Y. Mao,  
 N. Mardirossian,  A. V. Marenich,  L. A. Martinez-Martinez,  S. A. Maurer,  
 N. J. Mayhall,  J.-M. Mewes,  A. F. Morrison,  K. Nanda,  T. S. Nguyen-Beck,  
 C. M. Oana,  R. Olivares-Amaya,  D. P. O'Neill,  J. A. Parkhill,  
 T. M. Perrine,  R. Peverati,  P. A. Pieniazek,  F. Plasser,  A. Prociuk,  
 D. R. Rehn,  E. Rosta,  N. J. Russ,  N. Sergueev,  S. M. Sharada,  
 S. Sharma,  D. W. Small,  A. Sodt,  T. Stauch,  T. Stein,  D. Stuck,  
 Y.-C. Su,  A. J. W. Thom,  T. Tsuchimochi,  L. Vogt,  O. Vydrov,  T. Wang,  
 M. A. Watson,  J. Wenzel,  A. White,  C. F. Williams,  V. Vanovschi,  
 K. Yao,  S. Yeganeh,  S. R. Yost,  Z.-Q. You,  I. Y. Zhang,  X. Zhang,  
 Y. Zhao,  B. R. Brooks,  G. K. L. Chan,  D. M. Chipman,  C. J. Cramer,  
 W. A. Goddard III,  M. S. Gordon,  W. J. Hehre,  A. Klamt,  
 H. F. Schaefer III,  M. W. Schmidt,  C. D. Sherrill,  D. G. Truhlar,  
 A. Warshel,  X. Xu,  A. Aspuru-Guzik,  R. Baer,  A. T. Bell,  N. A. Besley,  
 J.-D. Chai,  A. Dreuw,  B. D. Dunietz,  T. R. Furlani,  S. R. Gwaltney,  
 C.-P. Hsu,  Y. Jung,  J. Kong,  D. S. Lambrecht,  W. Liang,  C. Ochsenfeld,  
 V. A. Rassolov,  L. V. Slipchenko,  J. E. Subotnik,  T. Van Voorhis,  
 J. M. Herbert,  A. I. Krylov,  P. M. W. Gill,  M. Head-Gordon

 Contributors to earlier versions of Q-Chem not listed above: 
 R. D. Adamson,  J. Baker,  E. F. C. Byrd,  A. K. Chakraborty,  C.-L. Cheng,  
 H. Dachsel,  R. J. Doerksen,  G. Hawkins,  A. Heyden,  S. Hirata,  
 G. Kedziora,  F. J. Keil,  C. Kelley,  P. P. Korambath,  W. Kurlancheek,  
 A. M. Lee,  M. S. Lee,  D. Liotard,  I. Lotan,  P. E. Maslen,  N. Nair,  
 D. Neuhauser,  R. Olson,  B. Peters,  J. Ritchie,  N. E. Schultz,  
 N. Shenvi,  A. C. Simmonett,  K. S. Thanthiriwatte,  Q. Wu,  W. Zhang

 Please cite Q-Chem as follows:
 Y. Shao et al., Mol. Phys. 113, 184-215 (2015)
 DOI: 10.1080/00268976.2014.952696

 Q-Chem 4.4.2 for Intel X86 Linux

 Parts of Q-Chem use Armadillo 5.200.1 (Boston Tea Smuggler).
 http://arma.sourceforge.net/

 Q-Chem begins on Fri Oct 12 03:04:38 2018  

Host: 
0

     Scratch files written to /tmpu/cab_g/afmv_a/scratch_qchem/qchem756//
 Dec716 11556_ 22328  22283 4050   
Processing $rem in /tmpu/appuserlic/qchem4.4/serial-multicore/config/preferences.
 MEM_TOTAL  2000 
FILE_GEOM_ORG=        593

Checking the input file for inconsistencies... 	...done.

--------------------------------------------------------------
User input:
--------------------------------------------------------------
$comment
SP
$end

$rem
MEM_STATIC 5000
MEM_TOTAL 20000
JOBTYPE SP
EXCHANGE B3LYP
BASIS 6-31g(d,p)
$end

$molecule
0 1
C           2.497000     10.730000     -2.650000
C           3.576000     10.688000     -1.715000
N           1.790000      9.592000     -2.954000
C           3.907000      9.486000     -1.091000
C           2.103000      8.418000     -2.303000
C           3.197000      8.306000     -1.384000
C           3.570000      7.025000     -0.682000
C           4.881000      6.645000     -0.533000
C           2.518000      6.111000     -0.170000
N           5.224000      5.581000      0.198000
N           1.184000      6.291000     -0.260000
C           2.908000      4.940000      0.521000
C           4.332000      4.702000      0.722000
S           0.512000      4.992000      0.420000
N           1.835000      4.186000      0.999000
C           4.821000      3.479000      1.383000
S           4.064000      1.896000      1.345000
C           6.150000      3.377000      1.894000
C           5.444000      1.202000      2.172000
S           7.393000      4.557000      2.207000
C           6.416000      2.147000      2.315000
C           5.439000     -0.045000      2.870000
C           8.293000      3.275000      2.906000
C           7.653000      2.056000      2.981000
N           4.444000     -0.895000      2.467000
S           6.327000     -0.445000      4.246000
C           4.521000     -2.013000      3.290000
C           5.341000     -1.870000      4.337000
C           2.046000     11.990000     -3.414000
H           4.295000     11.494000     -1.604000
H           4.768000      9.399000     -0.435000
H           1.614000      7.500000     -2.626000
H           5.640000      7.268000     -1.004000
H           9.278000      3.591000      3.225000
H           8.098000      1.197000      3.470000
H           3.847000     -2.843000      3.127000
H           5.382000     -2.480000      5.230000
H           1.370000     11.707000     -4.230000
C           3.153000     12.746000     -4.173000
H           1.506000     12.652000     -2.725000
H           4.017000     13.031000     -3.559000
H           2.694000     13.707000     -4.437000
C           3.679000     12.095000     -5.417000
H           4.012000     11.066000     -5.238000
C           4.825000     12.930000     -6.101000
H           2.821000     12.061000     -6.099000
H           5.654000     13.001000     -5.386000
H           4.496000     13.945000     -6.355000
C           5.273000     12.201000     -7.458000
H           6.205000     12.702000     -7.749000
C           4.266000     12.385000     -8.641000
H           5.586000     11.165000     -7.281000
H           3.355000     11.786000     -8.523000
H           4.701000     12.120000     -9.612000
H           4.013000     13.452000     -8.629000
C          -4.061000      1.689000      2.529000
C          -3.052000      2.240000      1.718000
N          -5.325000      2.206000      2.604000
C          -3.233000      3.490000      1.073000
C          -5.585000      3.309000      1.858000
C          -4.581000      4.068000      1.112000
C          -4.943000      5.432000      0.574000
C          -6.279000      5.853000      0.578000
C          -4.008000      6.513000      0.212000
N          -6.715000      7.029000      0.201000
N          -2.674000      6.386000      0.109000
C          -4.472000      7.760000     -0.133000
C          -5.819000      8.017000     -0.116000
S          -2.140000      7.821000     -0.323000
N          -3.487000      8.682000     -0.410000
C          -6.483000      9.243000     -0.717000
S          -8.078000      9.072000     -1.492000
C          -6.213000     10.540000     -0.442000
C          -8.319000     10.861000     -1.496000
S          -5.062000     11.193000      0.603000
C          -7.213000     11.389000     -0.854000
C          -9.535000     11.520000     -1.887000
C          -5.764000     12.743000      0.374000
C          -6.961000     12.702000     -0.309000
N         -10.570000     10.756000     -2.349000
S          -9.838000     13.267000     -1.798000
C         -11.637000     11.574000     -2.709000
C         -11.398000     12.929000     -2.616000
C          -3.734000      0.409000      3.312000
H          -2.022000      1.903000      1.652000
H          -2.358000      3.931000      0.605000
H          -6.603000      3.670000      1.990000
H          -7.093000      5.198000      0.886000
H          -5.338000     13.626000      0.832000
H          -7.569000     13.596000     -0.392000
H         -12.514000     11.137000     -3.168000
H         -11.993000     13.719000     -3.056000
H          -2.751000      0.549000      3.777000
C          -3.749000     -0.835000      2.416000
H          -4.466000      0.353000      4.127000
H          -2.830000     -0.901000      1.821000
H          -4.538000     -0.795000      1.654000
C          -3.780000     -2.177000      3.174000
H          -3.275000     -2.001000      4.132000
C          -3.134000     -3.375000      2.411000
H          -4.780000     -2.506000      3.483000
H          -3.268000     -3.374000      1.322000
H          -3.750000     -4.195000      2.801000
C          -1.748000     -3.646000      2.820000
H          -1.142000     -2.845000      2.379000
C          -1.224000     -4.938000      2.258000
H          -1.825000     -3.681000      3.913000
H          -0.249000     -5.203000      2.685000
H          -1.174000     -4.915000      1.163000
H          -1.900000     -5.738000      2.586000
$end

--------------------------------------------------------------
 ----------------------------------------------------------------
             Standard Nuclear Orientation (Angstroms)
    I     Atom           X                Y                Z
 ----------------------------------------------------------------
    1      C       1.4092064055    -6.0706724298    -0.0008230934
    2      C       0.3647485277    -6.4305820275     0.9046065411
    3      N       1.2619351623    -4.9998361589    -0.8487204113
    4      C      -0.8098832851    -5.6805438623     0.9423405434
    5      C       0.1113384705    -4.2442733608    -0.7759322882
    6      C      -0.9849341195    -4.5775965409     0.0848946782
    7      C      -2.2608776453    -3.7780553816     0.1597014520
    8      C      -3.4872428594    -4.3909573178     0.2352102483
    9      C      -2.2262781672    -2.2947360376     0.1066863613
   10      N      -4.6091059316    -3.6930950788     0.4314691152
   11      N      -1.1276396860    -1.5203832179    -0.0091894259
   12      C      -3.4406394321    -1.5787781703     0.2231039319
   13      C      -4.6700801409    -2.3369942155     0.4190757974
   14      S      -1.6580623674     0.0021177124    -0.0542193757
   15      N      -3.2789351624    -0.1924070919     0.2106154467
   16      C      -5.9814318293    -1.6687817913     0.4940418253
   17      S      -6.4485322503    -0.1879415213    -0.3240726481
   18      C      -7.1348751974    -2.3264612215     1.0182480480
   19      C      -8.1021820565    -0.3956813242     0.2165302495
   20      S      -7.3482657987    -3.7891446755     1.9404408503
   21      C      -8.2284060335    -1.5921259809     0.8575027069
   22      C      -9.0833405024     0.6419705768     0.2698653826
   23      C      -9.0030416795    -3.3533954647     2.0586119532
   24      C      -9.3486244553    -2.1338067169     1.5160607285
   25      N      -8.8121443634     1.6962880156    -0.5606774474
   26      S     -10.3353008480     0.8027546720     1.3873016303
   27      C      -9.8013253273     2.6459407770    -0.3307586497
   28      C     -10.5691096353     2.3936621272     0.7350371747
   29      C       2.7437023816    -6.8272725222    -0.1470208703
   30      H       0.3390435581    -7.3793984887     1.4318679350
   31      H      -1.6545597321    -5.9693388901     1.5606811710
   32      H      -0.0458560803    -3.4662852042    -1.5217193231
   33      H      -3.5094738976    -5.4776405190     0.1668260312
   34      H      -9.5898624765    -4.1045566275     2.5716814023
   35      H     -10.3490842848    -1.7249948194     1.5996068952
   36      H      -9.8100342368     3.5585891172    -0.9110535419
   37      H     -11.2227460294     3.0824964283     1.2541679578
   38      H       3.2579618405    -6.4996989018    -1.0586972011
   39      C       2.6314065211    -8.3459035428    -0.3798630126
   40      H       3.3811677429    -6.5983884502     0.7165849395
   41      H       2.0354136921    -8.8816396764     0.3701345494
   42      H       3.6496331378    -8.7216468210    -0.2188364750
   43      C       2.1544318949    -8.7844102799    -1.7319798890
   44      H       1.2048919656    -8.3125399429    -2.0103381253
   45      C       2.0456895055   -10.3497940284    -1.8590460639
   46      H       2.9256027319    -8.4332196743    -2.4279717701
   47      H       1.3107206516   -10.6911156621    -1.1195683251
   48      H       3.0026895000   -10.8445283312    -1.6532039395
   49      C       1.6036645451   -10.7298306362    -3.3536296551
   50      H       1.3318381763   -11.7918066838    -3.3024114997
   51      C       2.7520036940   -10.6018429571    -4.4083003872
   52      H       0.6645069401   -10.2406349805    -3.6386991265
   53      H       2.9901813925    -9.5603101080    -4.6555385482
   54      H       2.5189918136   -11.1104952014    -5.3513111813
   55      H       3.6192066779   -11.0790948564    -3.9362499563
   56      C      -1.0452118350     5.9932383314    -0.0843350476
   57      C      -1.2058628310     4.6483289605    -0.4648781354
   58      N       0.1778938788     6.5752529264     0.1050888792
   59      C      -0.1027047354     3.7573342787    -0.4862485140
   60      C       1.2691066580     5.7904495717    -0.0794737524
   61      C       1.2294555991     4.3459484607    -0.3085094130
   62      C       2.5086838425     3.5505724706    -0.1992567888
   63      C       3.7399656715     4.2140736319    -0.1226782901
   64      C       2.6272207380     2.1026248511     0.0521924023
   65      N       4.9095415327     3.6469776030     0.0376195539
   66      N       1.6126166071     1.2217763955     0.0209121243
   67      C       3.8544727210     1.5234145450     0.2705911005
   68      C       4.9845033212     2.3003407035     0.2833812094
   69      S       2.2659689079    -0.1942878197     0.3353925044
   70      N       3.8125257052     0.1713383261     0.5297596675
   71      C       6.4081369120     1.7738835312     0.2475588010
   72      S       7.6449110418     2.6817342155    -0.6580282389
   73      C       6.9797192057     0.8953750897     1.1032752258
   74      C       8.9734127152     1.7460319698     0.1282049398
   75      S       6.3034564235     0.1005082400     2.4276959825
   76      C       8.3529391351     0.9047550602     1.0345435618
   77      C      10.3739556719     2.0291963243    -0.0270863180
   78      C       7.8673753409    -0.4565883934     2.8653556229
   79      C       8.8780608846     0.1321954266     2.1354053882
   80      N      10.7446346804     3.0356019915    -0.8744998567
   81      S      11.6959280189     1.1976710114     0.8171256031
   82      C      12.1326054682     3.1301412774    -0.9170723314
   83      C      12.8108990129     2.1676420385    -0.1992227077
   84      C      -2.3083499103     6.8548866149     0.0587119310
   85      H      -2.1468986379     4.1203497830    -0.5853546816
   86      H      -0.3265419720     2.7037772488    -0.6242502396
   87      H       2.1999525985     6.3206676222     0.1114808334
   88      H       3.8231963099     5.2959369384    -0.2182264291
   89      H       8.0124293304    -1.1179338957     3.7094589737
   90      H       9.9134648957    -0.0303316299     2.4134566238
   91      H      12.5998560068     3.8276718992    -1.5996461119
   92      H      13.8620535780     1.9234234076    -0.2838178657
   93      H      -3.0449823195     6.2692523790     0.6213123535
   94      C      -2.8687370249     7.2872496621    -1.3012900827
   95      H      -2.0285730514     7.7059525426     0.6916390168
   96      H      -3.4185063759     6.4665566148    -1.7779016465
   97      H      -2.0787830247     7.5147349284    -2.0286057852
   98      C      -3.9079827764     8.4242249592    -1.2400982379
   99      H      -4.4049790478     8.3347003323    -0.2660627933
  100      C      -4.9483603284     8.4235980068    -2.4029839400
  101      H      -3.4809413106     9.4341798250    -1.2033728301
  102      H      -4.5701262689     8.0983743873    -3.3802487934
  103      H      -5.1351354877     9.5018586006    -2.4831408591
  104      C      -6.2254806237     7.7915136170    -2.0408360759
  105      H      -6.0306017486     6.7123038497    -2.0154096680
  106      C      -7.2906801783     8.0097556965    -3.0788169541
  107      H      -6.4749540566     8.2846210550    -1.0940462043
  108      H      -8.2730308576     7.6641733625    -2.7342317057
  109      H      -7.0290165040     7.5418737954    -4.0352021527
  110      H      -7.4053955477     9.0933337773    -3.2101901892
 ----------------------------------------------------------------
 Molecular Point Group                 C1    NOp =  1
 Largest Abelian Subgroup              C1    NOp =  1
 Nuclear Repulsion Energy = 10965.2287036828 hartrees
 There are      270 alpha and      270 beta electrons
 Requested basis set is 6-31G(d,p)
 There are 406 shells and 1262 basis functions

 Total QAlloc Memory Limit  20000 MB
 Mega-Array Size      4888 MB
 MEM_STATIC part      5000 MB
 A cutoff of  1.0D-08 yielded  12428 shell pairs
 There are    130695 function pairs
 
 -------------------------------------------------------
 OpenMP Integral Computing Module                       
 Release: version 1.0, May 2013, Q-Chem Inc. Pittsburgh 
 -------------------------------------------------------
 Integral Job Info:
 Integral job number is                      11
 Integral operator is                         1
 short-range coefficients                     0
 long-range coefficients              100000000
 Omega coefficients                           0
 if combine SR and LR in K                    0
 Integral screening is                        0
 Integral computing path is                   2
 max size of driver memory is            800000
 size of driver memory is                593474
 size of scratch memory is             15166112
 max col of scratch BK array               1296
 max len of scratch array in speh3          155
 max len of scratch index in speh4           18
 max int batch size is                      520
 min int batch size is                       52
 fixed nKL is                                52
 max L of basis functions is                  2
 order of int derivative is                   0
 number of shells is                        406
 number of basis is                        1262
 number of cartesian basis is              1262
 number of contracted shell pairs         12428
 number of primitive shell pairs          41101
 maxK2 (contraction) of shell pair           36
 max number of K2 of shell pair               1
 max number of CS2 of shell pair           1265
 max number of PS2 of shell pair           7590
 mem total for path MDJ                  278296
 -------------------------------------------------------
 Smallest overlap matrix eigenvalue = 4.53E-04

 Scale SEOQF with 1.000000e-02/1.000000e-02/1.000000e-02

 Standard Electronic Orientation quadrupole field applied
 Nucleus-field energy     =     0.0000001467 hartrees
 Guess from superposition of atomic densities
 Warning:  Energy on first SCF cycle will be non-variational
 A restricted hybrid HF-DFT SCF calculation will be
 performed using Pulay DIIS extrapolation
 Exchange:     0.2000 Hartree-Fock + 0.0800 Slater + 0.7200 B88
 Correlation:  0.1900 VWN1RPA + 0.8100 LYP
 Using SG-1 standard quadrature grid
 SCF converges when DIIS error is below 1.0E-05
 using 16 threads for integral computing 
 -------------------------------------------------------
 OpenMP BLAS3 based DFT computing Module                
 Release: version 1.0, May 2013, Q-Chem Inc. Pittsburgh 
 -------------------------------------------------------
 ---------------------------------------
  Cycle       Energy         DIIS Error
 ---------------------------------------
    1   -5679.9705706352      2.15E-02
    2   -5662.4610079086      2.18E-03
    3   -5660.2886633254      3.57E-03
    4   -5663.0911067211      1.21E-03
    5   -5663.4588474131      4.05E-04
    6   -5663.4724579001      3.27E-04
    7   -5663.4929551571      1.12E-04
    8   -5663.4953435421      4.25E-05
    9   -5663.4956309279      2.01E-05
   10   -5663.4957088077      7.00E-06 Convergence criterion met
 ---------------------------------------
 SCF time:  CPU 1025.14 s  wall 85.75 s
 SCF   energy in the final basis set = -5663.4957088077
 Total energy in the final basis set = -5663.4957088077
 
 --------------------------------------------------------------
 
                    Orbital Energies (a.u.)
 --------------------------------------------------------------
 
 Alpha MOs
 -- Occupied --
-88.993 -88.992 -88.934 -88.930 -88.924 -88.915 -88.915 -88.907
-14.394 -14.389 -14.386 -14.383 -14.350 -14.344 -14.343 -14.338
-14.336 -14.336 -10.271 -10.268 -10.266 -10.265 -10.262 -10.260
-10.257 -10.251 -10.242 -10.240 -10.240 -10.235 -10.235 -10.235
-10.235 -10.233 -10.233 -10.233 -10.231 -10.231 -10.230 -10.228
-10.226 -10.226 -10.225 -10.224 -10.224 -10.223 -10.218 -10.218
-10.217 -10.213 -10.206 -10.205 -10.204 -10.200 -10.200 -10.199
-10.190 -10.186 -10.186 -10.183 -10.181 -10.180 -10.177 -10.176
-10.176 -10.172 -10.171 -10.170  -8.049  -8.047  -7.997  -7.988
 -7.983  -7.976  -7.973  -7.969  -6.013  -6.012  -6.007  -6.007
 -6.006  -6.005  -5.960  -5.957  -5.953  -5.952  -5.949  -5.947
 -5.945  -5.944  -5.940  -5.940  -5.937  -5.937  -5.934  -5.933
 -5.932  -5.930  -5.929  -5.925  -1.054  -1.035  -0.967  -0.960
 -0.956  -0.944  -0.930  -0.927  -0.925  -0.919  -0.909  -0.901
 -0.858  -0.845  -0.830  -0.825  -0.816  -0.813  -0.810  -0.808
 -0.806  -0.797  -0.793  -0.790  -0.786  -0.778  -0.769  -0.768
 -0.755  -0.745  -0.745  -0.740  -0.732  -0.722  -0.711  -0.710
 -0.696  -0.690  -0.676  -0.675  -0.654  -0.653  -0.646  -0.642
 -0.637  -0.634  -0.626  -0.618  -0.611  -0.610  -0.599  -0.597
 -0.597  -0.590  -0.585  -0.584  -0.576  -0.575  -0.568  -0.564
 -0.551  -0.544  -0.544  -0.537  -0.529  -0.526  -0.522  -0.512
 -0.507  -0.503  -0.501  -0.496  -0.487  -0.480  -0.478  -0.478
 -0.476  -0.474  -0.472  -0.467  -0.466  -0.462  -0.451  -0.449
 -0.447  -0.446  -0.443  -0.437  -0.435  -0.433  -0.432  -0.430
 -0.427  -0.425  -0.425  -0.421  -0.420  -0.417  -0.414  -0.413
 -0.411  -0.407  -0.406  -0.404  -0.403  -0.399  -0.398  -0.396
 -0.394  -0.394  -0.393  -0.390  -0.388  -0.387  -0.384  -0.383
 -0.383  -0.374  -0.374  -0.371  -0.365  -0.362  -0.362  -0.360
 -0.358  -0.356  -0.350  -0.349  -0.348  -0.346  -0.342  -0.339
 -0.337  -0.337  -0.336  -0.336  -0.334  -0.331  -0.325  -0.324
 -0.319  -0.319  -0.317  -0.305  -0.304  -0.303  -0.302  -0.301
 -0.298  -0.297  -0.297  -0.287  -0.285  -0.285  -0.280  -0.277
 -0.273  -0.272  -0.270  -0.269  -0.260  -0.258  -0.252  -0.249
 -0.248  -0.241  -0.239  -0.226  -0.194  -0.188
 -- Virtual --
 -0.114  -0.111  -0.076  -0.074  -0.042  -0.039  -0.030  -0.029
 -0.022  -0.016  -0.014  -0.007  -0.004  -0.001   0.003   0.008
  0.010   0.019   0.022   0.024   0.025   0.029   0.031   0.037
  0.046   0.053   0.054   0.062   0.069   0.071   0.087   0.087
  0.098   0.100   0.101   0.102   0.104   0.107   0.110   0.112
  0.113   0.114   0.117   0.118   0.120   0.120   0.122   0.126
  0.128   0.128   0.130   0.131   0.135   0.138   0.143   0.144
  0.148   0.149   0.151   0.154   0.156   0.157   0.162   0.163
  0.163   0.166   0.168   0.171   0.172   0.174   0.176   0.178
  0.181   0.183   0.184   0.186   0.192   0.193   0.195   0.199
  0.203   0.205   0.206   0.208   0.209   0.211   0.213   0.215
  0.215   0.219   0.224   0.228   0.231   0.233   0.235   0.237
  0.239   0.240   0.242   0.245   0.246   0.248   0.251   0.253
  0.259   0.264   0.268   0.269   0.272   0.275   0.281   0.282
  0.283   0.288   0.288   0.291   0.293   0.295   0.296   0.299
  0.306   0.308   0.310   0.314   0.318   0.320   0.320   0.327
  0.330   0.333   0.334   0.341   0.344   0.345   0.347   0.350
  0.353   0.354   0.357   0.359   0.359   0.363   0.368   0.369
  0.371   0.375   0.378   0.384   0.385   0.392   0.396   0.402
  0.411   0.412   0.417   0.422   0.424   0.426   0.428   0.439
  0.443   0.444   0.448   0.456   0.457   0.460   0.468   0.475
  0.478   0.480   0.484   0.487   0.489   0.489   0.494   0.496
  0.498   0.500   0.502   0.507   0.507   0.513   0.514   0.517
  0.520   0.521   0.524   0.528   0.529   0.531   0.532   0.534
  0.536   0.539   0.540   0.541   0.543   0.546   0.546   0.548
  0.552   0.552   0.556   0.559   0.561   0.563   0.563   0.564
  0.566   0.567   0.568   0.569   0.570   0.574   0.576   0.579
  0.583   0.583   0.586   0.588   0.592   0.594   0.595   0.598
  0.599   0.600   0.602   0.604   0.606   0.607   0.610   0.613
  0.614   0.618   0.620   0.620   0.624   0.626   0.627   0.629
  0.632   0.633   0.634   0.635   0.636   0.640   0.642   0.644
  0.648   0.649   0.653   0.654   0.657   0.659   0.666   0.671
  0.672   0.675   0.677   0.683   0.683   0.685   0.686   0.690
  0.691   0.696   0.702   0.704   0.705   0.709   0.715   0.720
  0.722   0.729   0.731   0.733   0.736   0.739   0.743   0.747
  0.749   0.752   0.757   0.761   0.761   0.766   0.768   0.771
  0.773   0.775   0.781   0.785   0.789   0.791   0.792   0.794
  0.796   0.797   0.798   0.800   0.803   0.806   0.806   0.809
  0.810   0.812   0.814   0.817   0.818   0.819   0.821   0.823
  0.825   0.827   0.830   0.831   0.834   0.836   0.838   0.839
  0.841   0.845   0.845   0.847   0.849   0.850   0.853   0.855
  0.856   0.858   0.861   0.864   0.865   0.866   0.868   0.869
  0.872   0.877   0.881   0.881   0.884   0.886   0.887   0.889
  0.892   0.894   0.895   0.899   0.902   0.902   0.903   0.903
  0.908   0.909   0.913   0.915   0.916   0.918   0.922   0.924
  0.927   0.927   0.928   0.929   0.930   0.931   0.934   0.940
  0.941   0.941   0.946   0.949   0.950   0.953   0.954   0.958
  0.959   0.964   0.968   0.969   0.971   0.973   0.976   0.979
  0.982   0.988   0.989   0.991   0.991   0.995   1.002   1.005
  1.008   1.011   1.015   1.017   1.019   1.020   1.021   1.023
  1.025   1.029   1.032   1.039   1.044   1.044   1.049   1.050
  1.054   1.056   1.061   1.063   1.068   1.068   1.071   1.073
  1.076   1.085   1.086   1.090   1.090   1.097   1.100   1.104
  1.107   1.111   1.117   1.123   1.131   1.132   1.134   1.138
  1.143   1.149   1.152   1.157   1.161   1.167   1.176   1.181
  1.191   1.192   1.193   1.197   1.201   1.208   1.209   1.213
  1.217   1.230   1.232   1.241   1.242   1.245   1.252   1.255
  1.256   1.262   1.265   1.280   1.284   1.289   1.300   1.304
  1.304   1.309   1.311   1.312   1.324   1.329   1.332   1.335
  1.339   1.340   1.346   1.352   1.357   1.359   1.362   1.364
  1.369   1.372   1.375   1.382   1.383   1.384   1.392   1.394
  1.396   1.399   1.401   1.405   1.412   1.413   1.420   1.423
  1.433   1.441   1.442   1.446   1.447   1.453   1.458   1.461
  1.469   1.473   1.490   1.492   1.495   1.497   1.505   1.510
  1.514   1.518   1.532   1.535   1.536   1.542   1.546   1.546
  1.556   1.559   1.567   1.577   1.579   1.586   1.598   1.600
  1.608   1.619   1.629   1.634   1.641   1.643   1.647   1.656
  1.659   1.668   1.671   1.675   1.676   1.680   1.685   1.689
  1.690   1.691   1.697   1.697   1.702   1.704   1.706   1.708
  1.709   1.713   1.720   1.721   1.724   1.728   1.735   1.743
  1.754   1.759   1.765   1.766   1.768   1.769   1.772   1.778
  1.780   1.782   1.789   1.790   1.791   1.801   1.810   1.814
  1.822   1.825   1.828   1.834   1.836   1.838   1.844   1.845
  1.847   1.848   1.852   1.857   1.859   1.861   1.863   1.867
  1.868   1.871   1.874   1.880   1.886   1.887   1.895   1.895
  1.895   1.900   1.906   1.908   1.909   1.915   1.915   1.918
  1.920   1.923   1.931   1.934   1.938   1.942   1.946   1.949
  1.954   1.955   1.961   1.969   1.975   1.981   1.983   1.992
  1.994   1.998   2.003   2.007   2.009   2.011   2.012   2.024
  2.029   2.032   2.036   2.041   2.045   2.047   2.049   2.055
  2.055   2.062   2.068   2.071   2.076   2.079   2.085   2.097
  2.100   2.103   2.109   2.113   2.116   2.118   2.127   2.130
  2.132   2.134   2.138   2.139   2.145   2.148   2.153   2.157
  2.159   2.162   2.169   2.173   2.174   2.175   2.178   2.180
  2.188   2.193   2.195   2.201   2.212   2.212   2.217   2.220
  2.220   2.228   2.232   2.238   2.240   2.243   2.244   2.245
  2.257   2.261   2.262   2.264   2.269   2.272   2.273   2.277
  2.279   2.281   2.283   2.286   2.289   2.296   2.299   2.302
  2.303   2.306   2.310   2.311   2.318   2.319   2.322   2.325
  2.328   2.328   2.335   2.341   2.347   2.350   2.351   2.362
  2.365   2.370   2.371   2.376   2.380   2.380   2.384   2.387
  2.393   2.396   2.400   2.400   2.402   2.407   2.408   2.413
  2.414   2.422   2.426   2.427   2.430   2.439   2.444   2.445
  2.447   2.449   2.454   2.455   2.458   2.469   2.476   2.480
  2.481   2.487   2.489   2.493   2.494   2.496   2.500   2.504
  2.507   2.511   2.513   2.516   2.520   2.520   2.530   2.534
  2.541   2.543   2.547   2.552   2.555   2.556   2.563   2.571
  2.572   2.574   2.579   2.583   2.586   2.589   2.592   2.596
  2.597   2.606   2.607   2.614   2.617   2.621   2.628   2.632
  2.636   2.637   2.649   2.650   2.657   2.663   2.665   2.666
  2.673   2.677   2.678   2.680   2.684   2.686   2.690   2.693
  2.701   2.707   2.711   2.715   2.717   2.721   2.721   2.730
  2.734   2.741   2.747   2.764   2.774   2.783   2.783   2.785
  2.790   2.794   2.796   2.802   2.803   2.811   2.816   2.825
  2.827   2.837   2.844   2.845   2.851   2.859   2.861   2.869
  2.879   2.883   2.885   2.889   2.893   2.894   2.898   2.902
  2.908   2.911   2.913   2.925   2.930   2.932   2.934   2.945
  2.948   2.949   2.956   2.961   2.963   2.965   2.990   2.993
  3.029   3.032   3.040   3.068   3.069   3.073   3.089   3.095
  3.131   3.144   3.167   3.185   3.191   3.195   3.220   3.221
  3.235   3.240   3.243   3.249   3.256   3.268   3.280   3.287
  3.288   3.289   3.296   3.310   3.313   3.316   3.324   3.337
  3.339   3.351   3.362   3.366   3.376   3.390   3.413   3.421
  3.428   3.439   3.448   3.474   3.486   3.499   3.523   3.525
  3.549   3.551   3.559   3.561   3.574   3.590   3.598   3.600
  3.614   3.659   3.687   3.694   3.846   3.859   3.924   3.928
  3.939   3.942   3.944   3.953   3.958   3.972   3.988   3.994
  3.996   3.999   4.054   4.077   4.086   4.089   4.098   4.112
  4.128   4.137   4.143   4.153   4.155   4.157   4.167   4.180
  4.199   4.207   4.222   4.233   4.246   4.254   4.260   4.270
  4.280   4.289   4.310   4.336   4.362   4.370   4.378   4.385
  4.415   4.417   4.440   4.453   4.466   4.484   4.488   4.501
  4.502   4.510   4.529   4.536   4.589   4.602   4.634   4.658
  4.674   4.714   4.727   4.730   4.735   4.754   4.767   4.789
 --------------------------------------------------------------
 
          Ground-State Mulliken Net Atomic Charges

     Atom                 Charge (a.u.)
  ----------------------------------------
      1 C                     0.264509
      2 C                    -0.115749
      3 N                    -0.487218
      4 C                    -0.080352
      5 C                     0.090517
      6 C                     0.029796
      7 C                     0.026584
      8 C                     0.066226
      9 C                     0.233230
     10 N                    -0.523357
     11 N                    -0.564613
     12 C                     0.172401
     13 C                     0.288374
     14 S                     0.630701
     15 N                    -0.557458
     16 C                    -0.231590
     17 S                     0.365487
     18 C                    -0.100621
     19 C                    -0.208615
     20 S                     0.287071
     21 C                     0.152006
     22 C                     0.042204
     23 C                    -0.312567
     24 C                    -0.084544
     25 N                    -0.443240
     26 S                     0.296494
     27 C                     0.130104
     28 C                    -0.311580
     29 C                    -0.229400
     30 H                     0.095367
     31 H                     0.099107
     32 H                     0.112251
     33 H                     0.117880
     34 H                     0.130463
     35 H                     0.117276
     36 H                     0.115460
     37 H                     0.130568
     38 H                     0.123144
     39 C                    -0.187112
     40 H                     0.113939
     41 H                     0.082483
     42 H                     0.092912
     43 C                    -0.161975
     44 H                     0.099930
     45 C                    -0.183043
     46 H                     0.096051
     47 H                     0.089982
     48 H                     0.092062
     49 C                    -0.185580
     50 H                     0.089199
     51 C                    -0.315191
     52 H                     0.094157
     53 H                     0.109632
     54 H                     0.104016
     55 H                     0.103288
     56 C                     0.245941
     57 C                    -0.104162
     58 N                    -0.478604
     59 C                    -0.085622
     60 C                     0.080571
     61 C                     0.018638
     62 C                     0.071089
     63 C                     0.057693
     64 C                     0.230777
     65 N                    -0.499160
     66 N                    -0.566924
     67 C                     0.217952
     68 C                     0.209171
     69 S                     0.646346
     70 N                    -0.530465
     71 C                    -0.230240
     72 S                     0.348406
     73 C                    -0.094907
     74 C                    -0.216388
     75 S                     0.283602
     76 C                     0.132166
     77 C                     0.052906
     78 C                    -0.294043
     79 C                    -0.096666
     80 N                    -0.439785
     81 S                     0.261074
     82 C                     0.130238
     83 C                    -0.313843
     84 C                    -0.229289
     85 H                     0.094082
     86 H                     0.128140
     87 H                     0.106975
     88 H                     0.111258
     89 H                     0.127837
     90 H                     0.114223
     91 H                     0.116621
     92 H                     0.130553
     93 H                     0.105914
     94 C                    -0.168304
     95 H                     0.117742
     96 H                     0.096555
     97 H                     0.107432
     98 C                    -0.190549
     99 H                     0.090307
    100 C                    -0.174350
    101 H                     0.094793
    102 H                     0.088109
    103 H                     0.084087
    104 C                    -0.158866
    105 H                     0.093319
    106 C                    -0.311745
    107 H                     0.092225
    108 H                     0.095727
    109 H                     0.102711
    110 H                     0.097665
  ----------------------------------------
  Sum of atomic charges =     0.000000

 -----------------------------------------------------------------
                    Cartesian Multipole Moments
 -----------------------------------------------------------------
    Charge (ESU x 10^10)
                 0.0000
    Dipole Moment (Debye)
         X      -3.8391      Y      -3.9204      Z       3.0970
       Tot       6.3008
    Quadrupole Moments (Debye-Ang)
        XX    -379.7222     XY     -26.1174     YY    -431.7933
        XZ      -5.4571     YZ     -12.6946     ZZ    -443.6452
    Octopole Moments (Debye-Ang^2)
       XXX      -7.9277    XXY      28.7363    XYY    -165.5803
       YYY    -281.9567    XXZ     270.0582    XYZ     -13.2221
       YYZ      33.3924    XZZ       9.2959    YZZ     -30.2871
       ZZZ      21.1164
    Hexadecapole Moments (Debye-Ang^3)
      XXXX  -86725.6590   XXXY    -764.1311   XXYY  -26020.1955
      XYYY   -1015.4037   YYYY  -55641.8298   XXXZ   -1910.5249
      XXYZ    -586.5161   XYYZ    -338.4761   YYYZ    -311.7201
      XXZZ  -18031.6999   XYZZ     -26.4927   YYZZ  -10338.1763
      XZZZ     107.2726   YZZZ     -36.0622   ZZZZ   -5162.4031
 -----------------------------------------------------------------
Archival summary:
1\1\mn246\SP\ProcedureUnspecified\6-31G**\8105042\afmv_a\FriOct1203:06:072018FriOct1203:06:072018\0\\#,ProcedureUnspecified,6-31G**,\\0,1\S\N,1,1.61288\C,2,1.34909,1,106.045\C,3,1.4145,2,114.562,1,3.19784,0\N,4,1.39583,3,113.737,2,0.625015,0\C,4,1.45768,3,118.156,2,177.022,0\N,6,1.35753,4,118.878,3,2.44989,0\C,7,1.3357,6,123.938,4,2.01919,0\H,8,1.08906,7,120.891,6,174.476,0\C,8,1.37307,7,121.67,6,-7.88581,0\C,6,1.47369,4,121.433,3,177.459,0\C,11,1.4275,6,121.923,4,163.604,0\C,12,1.32699,11,111.495,6,173.274,0\C,13,1.36318,12,117.798,11,-1.64391,0\C,13,1.40784,12,112.714,11,172.274,0\H,15,1.08399,13,128.707,12,-176.479,0\C,15,1.37884,13,108.963,12,4.93154,0\H,17,1.08252,15,131.636,13,175.004,0\C,14,1.42907,13,123.791,12,163.179,0\N,19,1.36928,14,113.607,13,173.495,0\C,20,1.39039,19,106.541,14,176.292,0\H,21,1.08155,20,119.561,19,177.639,0\C,21,1.33756,20,114.288,19,-10.4297,0\H,23,1.08223,21,127.507,20,-163.505,0\C,10,1.50761,8,121.46,7,-173.422,0\C,25,1.40796,10,119.37,8,44.7319,0\H,26,1.08592,25,117.284,10,-5.94355,0\C,26,1.39418,25,120.644,10,179.381,0\H,28,1.08578,26,115.914,25,167.192,0\C,28,1.42837,26,119.846,25,-0.709055,0\N,30,1.37379,28,120.614,26,0.786134,0\C,31,1.37842,30,118.957,28,-2.5517,0\H,32,1.08912,31,118.416,30,173.433,0\C,30,1.54101,28,124.726,26,179.298,0\H,34,1.09678,30,109.771,28,-166.585,0\H,34,1.09753,30,109.023,28,74.5335,0\C,34,1.54048,30,115.8,28,-52.1707,0\H,37,1.09722,34,104.345,30,167.037,0\H,37,1.0976,34,114.676,30,54.325,0\C,37,1.49934,34,116.604,30,-72.5615,0\H,40,1.09625,37,112.25,34,53.4885,0\H,40,1.09656,37,104.773,34,-63.5388,0\C,40,1.57429,37,112.679,34,178.805,0\H,43,1.09681,40,111.907,37,57.5953,0\H,43,1.09704,40,107.532,37,-61.4933,0\C,43,1.60424,40,109.256,37,177.106,0\H,46,1.09663,43,111.868,40,56.288,0\H,46,1.09741,43,104.715,40,167.605,0\C,46,1.56441,43,113.982,40,-75.7942,0\H,49,1.09649,46,112.697,43,-164.652,0\H,49,1.09665,46,104.754,43,-45.497,0\H,49,1.09665,46,112.899,43,73.9327,0\S,19,1.6858,14,127.148,13,-17.2627,0\S,17,1.71526,15,116.065,13,-5.98968,0\S,14,1.75213,13,109.666,12,-3.19746,0\H,1,3.06543,2,133.971,3,171.28,0\C,56,1.08588,1,157.074,2,137.013,0\C,57,1.4182,56,116.816,1,54.3822,0\H,58,1.08574,57,111.531,56,-0.552087,0\C,58,1.40691,57,121.053,56,-169.887,0\N,60,1.3677,58,123.118,57,-9.33844,0\C,61,1.35673,60,117.018,58,0.551389,0\H,62,1.08815,61,112.476,60,178.728,0\C,62,1.46308,61,124.792,60,7.55034,0\C,64,1.51029,62,119.056,61,166.803,0\C,65,1.40077,64,119.936,62,11.4691,0\H,66,1.08926,65,122.196,64,4.96388,0\N,66,1.30966,65,125.914,64,-176.572,0\C,68,1.37093,66,119.743,65,6.68614,0\C,69,1.3714,68,120.647,66,-4.58859,0\C,70,1.37453,69,119.898,68,2.1023,0\N,71,1.34398,70,113.675,69,-177.886,0\N,70,1.37733,69,125.413,68,178.611,0\C,69,1.51828,68,112.808,66,-171.864,0\C,74,1.35305,69,127.324,68,-137.357,0\C,75,1.37497,74,112.697,69,162.933,0\C,76,1.38354,75,118.999,74,1.21791,0\C,77,1.4373,76,128.871,75,-172.875,0\N,78,1.36688,77,118.443,76,171.213,0\C,79,1.39184,78,109.841,77,178.355,0\H,80,1.08203,79,119.585,78,-175.315,0\C,80,1.37906,79,115.287,78,-4.22995,0\H,82,1.08246,80,126.471,79,-164.761,0\C,76,1.44378,75,108.753,74,-169.607,0\H,84,1.08434,76,128.537,75,176.797,0\C,84,1.37876,76,111.443,75,-4.19733,0\H,86,1.08209,84,125.15,76,-177.151,0\C,60,1.53571,58,117.88,57,173.566,0\H,88,1.09641,60,107.501,58,-45.6648,0\H,88,1.0969,60,106.218,58,-159.749,0\C,88,1.53316,60,112.101,58,76.7274,0\H,91,1.09679,88,110.957,60,-77.817,0\H,91,1.09762,88,112.531,60,37.2123,0\C,91,1.54159,88,114.783,60,165.469,0\H,94,1.09714,91,114.699,88,-83.9088,0\H,94,1.09716,91,106.286,88,28.9593,0\C,94,1.56035,91,114.81,88,152.172,0\H,97,1.09721,94,115.726,91,35.1643,0\H,97,1.09725,94,99.6452,91,148.909,0\C,97,1.47028,94,113.314,91,-97.7362,0\H,100,1.09627,97,102.534,94,-49.8533,0\H,100,1.09696,97,105.923,94,73.9669,0\C,100,1.50322,97,112.521,94,-170.004,0\H,103,1.09638,100,111.793,97,-63.6349,0\H,103,1.0969,100,111.836,97,171.605,0\H,103,1.09752,100,107.461,97,57.1438,0\S,72,1.59091,71,105.589,70,-2.82599,0\S,75,1.68619,74,129.301,69,-1.41556,0\S,78,1.77531,77,125.588,76,-7.59936,0\S,74,1.78154,69,119.093,68,22.8652,0\\\@

 Total job time:  88.90s(wall), 1035.07s(cpu) 
 Fri Oct 12 03:06:07 2018

        *************************************************************
        *                                                           *
        *  Thank you very much for using Q-Chem.  Have a nice day.  *
        *                                                           *
        *************************************************************


