
Running Job 1 of 1 ./9/74.qcin
qchem ./9/74.qcin_1177.0 /tmpu/cab_g/afmv_a/scratch_qchem/qchem1177/ 1
/tmpu/appuserlic/qchem4.4/serial-multicore/exe/qcprog.exe_s ./9/74.qcin_1177.0 /tmpu/cab_g/afmv_a/scratch_qchem/qchem1177/
Check license passed

                  Welcome to Q-Chem
     A Quantum Leap Into The Future Of Chemistry


 Q-Chem 4.4, Q-Chem, Inc., Pleasanton, CA (2016)

 Y. Shao,  Z. Gan,  E. Epifanovsky,  A. T. B. Gilbert,  M. Wormit,  
 J. Kussmann,  A. W. Lange,  A. Behn,  J. Deng,  X. Feng,  D. Ghosh,  
 M. Goldey,  P. R. Horn,  L. D. Jacobson,  I. Kaliman,  F. Rob,  
 R. Z. Khaliullin,  T. Kus,  A. Landau,  J. Liu,  E. I. Proynov,  Y. M. Rhee,  
 R. M. Richard,  M. A. Rohrdanz,  R. P. Steele,  E. J. Sundstrom,  
 H. L. Woodcock III,  P. M. Zimmerman,  D. Zuev,  B. Albrecht,  E. Alguire,  
 B. Austin,  S. A. Baeppler,  G. J. O. Beran,  Y. A. Bernard,  E. Berquist,  
 K. Brandhorst,  K. B. Bravaya,  S. T. Brown,  D. Casanova,  C.-M. Chang,  
 Y. Chen,  S. H. Chien,  K. D. Closser,  M. P. Coons,  D. L. Crittenden,  
 S. Dasgupta,  M. Diedenhofen,  R. A. DiStasio Jr.,  H. Do,  A. D. Dutoi,  
 R. G. Edgar,  P.-T. Fang,  S. Fatehi,  Q. Feng,  L. Fusti-Molnar,  
 A. Ghysels,  A. Golubeva-Zadorozhnaya,  J. Gomes,  A. Gunina,  
 M. W. D. Hanson-Heine,  P. H. P. Harbach,  A. W. Hauser,  J. E. Herr,  
 E. G. Hohenstein,  Z. C. Holden,  K. Hui,  T.-C. Jagau,  H. Ji,  B. Kaduk,  
 K. Khistyaev,  Jaehoon Kim,  Jihan Kim,  R. A. King,  P. Klunzinger,  
 K. Koh,  D. Kosenkov,  T. Kowalczyk,  C. M. Krauter,  A. Kunitsa,  
 K. U. Lao,  A. Laurent,  K. V. Lawler,  J. Lee,  D. Lefrancois,  S. Lehtola,  
 S. V. Levchenko,  C. Y. Lin,  Y.-S. Lin,  F. Liu,  E. Livshits,  
 R. C. Lochan,  A. Luenser,  P. Manohar,  S. F. Manzer,  S.-P. Mao,  Y. Mao,  
 N. Mardirossian,  A. V. Marenich,  L. A. Martinez-Martinez,  S. A. Maurer,  
 N. J. Mayhall,  J.-M. Mewes,  A. F. Morrison,  K. Nanda,  T. S. Nguyen-Beck,  
 C. M. Oana,  R. Olivares-Amaya,  D. P. O'Neill,  J. A. Parkhill,  
 T. M. Perrine,  R. Peverati,  P. A. Pieniazek,  F. Plasser,  A. Prociuk,  
 D. R. Rehn,  E. Rosta,  N. J. Russ,  N. Sergueev,  S. M. Sharada,  
 S. Sharma,  D. W. Small,  A. Sodt,  T. Stauch,  T. Stein,  D. Stuck,  
 Y.-C. Su,  A. J. W. Thom,  T. Tsuchimochi,  L. Vogt,  O. Vydrov,  T. Wang,  
 M. A. Watson,  J. Wenzel,  A. White,  C. F. Williams,  V. Vanovschi,  
 K. Yao,  S. Yeganeh,  S. R. Yost,  Z.-Q. You,  I. Y. Zhang,  X. Zhang,  
 Y. Zhao,  B. R. Brooks,  G. K. L. Chan,  D. M. Chipman,  C. J. Cramer,  
 W. A. Goddard III,  M. S. Gordon,  W. J. Hehre,  A. Klamt,  
 H. F. Schaefer III,  M. W. Schmidt,  C. D. Sherrill,  D. G. Truhlar,  
 A. Warshel,  X. Xu,  A. Aspuru-Guzik,  R. Baer,  A. T. Bell,  N. A. Besley,  
 J.-D. Chai,  A. Dreuw,  B. D. Dunietz,  T. R. Furlani,  S. R. Gwaltney,  
 C.-P. Hsu,  Y. Jung,  J. Kong,  D. S. Lambrecht,  W. Liang,  C. Ochsenfeld,  
 V. A. Rassolov,  L. V. Slipchenko,  J. E. Subotnik,  T. Van Voorhis,  
 J. M. Herbert,  A. I. Krylov,  P. M. W. Gill,  M. Head-Gordon

 Contributors to earlier versions of Q-Chem not listed above: 
 R. D. Adamson,  J. Baker,  E. F. C. Byrd,  A. K. Chakraborty,  C.-L. Cheng,  
 H. Dachsel,  R. J. Doerksen,  G. Hawkins,  A. Heyden,  S. Hirata,  
 G. Kedziora,  F. J. Keil,  C. Kelley,  P. P. Korambath,  W. Kurlancheek,  
 A. M. Lee,  M. S. Lee,  D. Liotard,  I. Lotan,  P. E. Maslen,  N. Nair,  
 D. Neuhauser,  R. Olson,  B. Peters,  J. Ritchie,  N. E. Schultz,  
 N. Shenvi,  A. C. Simmonett,  K. S. Thanthiriwatte,  Q. Wu,  W. Zhang

 Please cite Q-Chem as follows:
 Y. Shao et al., Mol. Phys. 113, 184-215 (2015)
 DOI: 10.1080/00268976.2014.952696

 Q-Chem 4.4.2 for Intel X86 Linux

 Parts of Q-Chem use Armadillo 5.200.1 (Boston Tea Smuggler).
 http://arma.sourceforge.net/

 Q-Chem begins on Fri Oct 12 03:10:43 2018  

Host: 
0

     Scratch files written to /tmpu/cab_g/afmv_a/scratch_qchem/qchem1177//
 Dec716 11556_ 22328  22283 4050   
Processing $rem in /tmpu/appuserlic/qchem4.4/serial-multicore/config/preferences.
 MEM_TOTAL  2000 
FILE_GEOM_ORG=        593

Checking the input file for inconsistencies... 	...done.

--------------------------------------------------------------
User input:
--------------------------------------------------------------
$comment
SP
$end

$rem
MEM_STATIC 5000
MEM_TOTAL 20000
JOBTYPE SP
EXCHANGE B3LYP
BASIS 6-31g(d,p)
$end

$molecule
0 1
C         -13.296000     12.157000     -7.563000
C         -13.507000     12.886000     -6.374000
N         -12.703000     12.722000     -8.687000
C         -13.044000     14.228000     -6.284000
C         -12.342000     14.013000     -8.618000
C         -12.492000     14.837000     -7.441000
C         -12.180000     16.316000     -7.513000
C         -11.117000     16.845000     -8.233000
C         -12.968000     17.288000     -6.823000
N         -10.838000     18.153000     -8.195000
N         -13.938000     16.940000     -5.929000
C         -12.644000     18.662000     -6.851000
C         -11.545000     19.054000     -7.673000
S         -14.462000     18.366000     -5.326000
N         -13.434000     19.403000     -6.010000
C         -10.934000     20.372000     -7.731000
S         -11.504000     21.705000     -6.869000
C          -9.759000     20.714000     -8.451000
C         -10.135000     22.776000     -7.391000
S          -8.747000     19.834000     -9.596000
C          -9.363000     22.060000     -8.318000
C          -9.944000     24.188000     -7.003000
C          -7.677000     21.308000     -9.686000
C          -8.140000     22.376000     -8.944000
N         -10.542000     24.585000     -5.924000
S          -8.910000     25.385000     -7.832000
C         -10.231000     25.935000     -5.619000
C          -9.471000     26.587000     -6.603000
C         -13.696000     10.616000     -7.611000
H         -13.955000     12.372000     -5.529000
H         -13.132000     14.693000     -5.307000
H         -11.952000     14.349000     -9.577000
H         -10.439000     16.227000     -8.819000
H          -6.821000     21.371000    -10.344000
H          -7.582000     23.304000     -8.993000
H         -10.734000     26.441000     -4.805000
H          -9.188000     27.617000     -6.777000
H         -14.665000     10.375000     -7.156000
C         -12.579000      9.824000     -6.881000
H         -13.704000     10.274000     -8.653000
H         -12.471000     10.053000     -5.813000
H         -11.580000     10.076000     -7.256000
C         -12.857000      8.326000     -6.966000
H         -13.795000      8.093000     -6.447000
C         -11.739000      7.510000     -6.320000
H         -13.047000      8.042000     -8.008000
H         -11.768000      7.684000     -5.237000
H         -10.759000      7.756000     -6.747000
C         -11.985000      6.056000     -6.507000
H         -13.024000      5.844000     -6.226000
C         -11.071000      5.212000     -5.596000
H         -11.851000      5.819000     -7.570000
H          -9.986000      5.305000     -5.731000
H         -11.239000      4.141000     -5.761000
H         -11.269000      5.493000     -4.554000
C         -17.575000     14.775000      3.404000
C         -17.769000     14.458000      2.080000
N         -16.428000     15.410000      3.829000
C         -16.657000     14.619000      1.237000
C         -15.438000     15.692000      2.948000
C         -15.510000     15.346000      1.593000
C         -14.302000     15.521000      0.732000
C         -13.036000     15.823000      1.250000
C         -14.316000     15.563000     -0.666000
N         -11.857000     16.034000      0.583000
N         -15.408000     15.399000     -1.462000
C         -13.192000     15.817000     -1.401000
C         -11.911000     16.066000     -0.745000
S         -14.992000     15.694000     -3.008000
N         -13.409000     15.912000     -2.761000
C         -10.672000     16.400000     -1.500000
S         -10.619000     17.180000     -3.129000
C          -9.426000     16.511000     -0.896000
C          -8.873000     17.478000     -2.954000
S          -8.796000     15.823000      0.555000
C          -8.416000     17.083000     -1.749000
C          -8.048000     18.125000     -3.945000
C          -7.244000     16.529000      0.112000
C          -7.154000     17.021000     -1.178000
N          -6.721000     17.973000     -3.867000
S          -8.793000     18.986000     -5.215000
C          -6.202000     18.571000     -4.996000
C          -7.149000     19.052000     -5.816000
C         -18.603000     14.526000      4.456000
H         -18.682000     13.964000      1.763000
H         -16.624000     14.116000      0.276000
H         -14.600000     16.210000      3.412000
H         -12.903000     15.762000      2.329000
H          -6.458000     16.435000      0.849000
H          -6.243000     17.453000     -1.578000
H          -5.142000     18.456000     -5.183000
H          -7.011000     19.631000     -6.719000
H         -18.872000     15.521000      4.831000
C         -18.113000     13.632000      5.613000
H         -19.466000     14.073000      3.951000
H         -17.175000     14.081000      5.963000
H         -17.994000     12.592000      5.285000
C         -19.086000     13.770000      6.732000
H         -19.249000     14.812000      7.033000
C         -18.563000     12.762000      7.826000
H         -20.099000     13.562000      6.364000
H         -17.563000     13.129000      8.084000
H         -18.410000     11.730000      7.488000
C         -19.495000     12.767000      9.099000
H         -19.147000     12.046000      9.850000
C         -20.967000     12.703000      8.886000
H         -19.396000     13.756000      9.563000
H         -21.505000     12.585000      9.835000
H         -21.115000     11.743000      8.378000
H         -21.479000     13.464000      8.284000
$end

--------------------------------------------------------------
 ----------------------------------------------------------------
             Standard Nuclear Orientation (Angstroms)
    I     Atom           X                Y                Z
 ----------------------------------------------------------------
    1      C       0.0588036768    -5.9390805411    -1.7771850899
    2      C      -0.5200942178    -4.6651873341    -1.5989820462
    3      N       1.4341865571    -6.1257574903    -1.8650693845
    4      C       0.3216896198    -3.5300283027    -1.4369729596
    5      C       2.2162529731    -5.0373572390    -1.7907725892
    6      C       1.7235585911    -3.6951752930    -1.5843631182
    7      C       2.6790386575    -2.5237643304    -1.6538123757
    8      C       3.9715276650    -2.5526727018    -1.1470121474
    9      C       2.3055588120    -1.2794705336    -2.2488533426
   10      N       4.7452909268    -1.4612390722    -1.1615739828
   11      N       1.0254375200    -1.0109974364    -2.6367343473
   12      C       3.1816997800    -0.1723575950    -2.2665718395
   13      C       4.4943838330    -0.3739014993    -1.7437050958
   14      S       1.0719881784     0.5453650370    -3.1339565185
   15      N       2.5813534090     0.9621822922    -2.7491332131
   16      C       5.5004201700     0.6496687803    -1.5113179805
   17      S       5.2923092649     2.2736016269    -1.9167374682
   18      C       6.7509209758     0.4568865906    -0.8670573485
   19      C       6.8659891353     2.7832068299    -1.1700647135
   20      S       7.6037068399    -0.9758116344    -0.2928613316
   21      C       7.5320062542     1.6236962935    -0.7458884371
   22      C       7.4005274661     4.1592718371    -1.1315566772
   23      C       8.9314159230     0.1276235708     0.2947570296
   24      C       8.7249282258     1.4572966840    -0.0132839466
   25      N       6.5460365903     5.1236835808    -1.2701544109
   26      S       9.0981329020     4.6296511144    -0.8381540197
   27      C       7.1655754544     6.3940666070    -1.1495535719
   28      C       8.5649857756     6.3447007894    -1.0486884684
   29      C      -0.8845255800    -7.2216307012    -1.8238755612
   30      H      -1.6006857074    -4.5990946919    -1.5160435427
   31      H      -0.1816419871    -2.6010799115    -1.1875532731
   32      H       3.2598103660    -5.3101480932    -1.9365467902
   33      H       4.3988284647    -3.4370555027    -0.6776667648
   34      H       9.8428418782    -0.2411050643     0.7453243627
   35      H       9.5001296044     2.1644239172     0.2587140293
   36      H       6.6016001239     7.2974740058    -1.3430164843
   37      H       9.3503515418     7.0879875442    -1.0933025172
   38      H      -1.7955976014    -7.1044228450    -2.4241064253
   39      C      -1.2775805022    -7.5616703374    -0.3617764285
   40      H      -0.3177538878    -8.0767955531    -2.2115028630
   41      H      -1.8728868469    -6.7935934388     0.1485148941
   42      H      -0.4037810520    -7.6280340191     0.2971624022
   43      C      -2.1142488497    -8.8373161232    -0.3267492148
   44      H      -3.0522051589    -8.6805981105    -0.8737148687
   45      C      -2.4590060533    -9.2434349046     1.1047905178
   46      H      -1.6047646837    -9.6311724958    -0.8859789924
   47      H      -3.1585278606    -8.5032465757     1.5131977640
   48      H      -1.5601536345    -9.3419241297     1.7257649148
   49      C      -3.1849892784   -10.5405314659     1.1142703655
   50      H      -3.9902433231   -10.4894479329     0.3710460412
   51      C      -3.8309541091   -10.8103580180     2.4881612160
   52      H      -2.4817991609   -11.3297641732     0.8197718215
   53      H      -3.1688975311   -10.8839752588     3.3601477924
   54      H      -4.3399090399   -11.7816509431     2.4948643637
   55      H      -4.5272212806    -9.9913870344     2.7082238296
   56      C      -8.4907307092     2.5537306635    -1.3119178289
   57      C      -7.7983318341     1.5782211961    -1.9901995378
   58      N      -7.9228641555     3.2342278981    -0.2564984379
   59      C      -6.5823475710     1.1716670837    -1.4164312695
   60      C      -6.6761834783     2.9164258912     0.1684417621
   61      C      -5.9181703201     1.8910799070    -0.4103558403
   62      C      -4.6363310669     1.4795079127     0.2367195978
   63      C      -4.2481515440     1.9248402180     1.5068691149
   64      C      -3.6218017497     0.7499630057    -0.3916580699
   65      N      -3.1005186727     1.6515816265     2.2052383116
   66      N      -3.6576457036     0.2550620133    -1.6592401061
   67      C      -2.4298475401     0.4792308131     0.2199514804
   68      C      -2.1602525702     0.9548792833     1.5743425188
   69      S      -2.2028147606    -0.3752074128    -2.0285968147
   70      N      -1.5123602438    -0.1708703324    -0.5808603339
   71      C      -0.8582487091     0.7317060066     2.2611333418
   72      S       0.7302149228     0.4861668824     1.4356978032
   73      C      -0.6386255609     1.0663190638     3.5913411356
   74      C       1.5908243473     0.7061708537     2.9780643845
   75      S      -1.7267277226     1.2424722355     4.9182355345
   76      C       0.7456241187     1.0042001828     3.9848980810
   77      C       3.0237226042     0.6441769215     3.1338666237
   78      C      -0.3085017925     1.4780123554     5.9363441060
   79      C       0.9081703781     1.1753729201     5.3512097612
   80      N       3.5239250863     0.4657190922     4.3619005321
   81      S       4.0157924023     0.7195564219     1.7484564149
   82      C       4.8843986054     0.3090831805     4.2000889286
   83      C       5.2642190385     0.3284570550     2.9132590674
   84      C      -9.8609979930     2.9953905400    -1.7028054399
   85      H      -8.2597301800     1.0577628314    -2.8234633957
   86      H      -6.1361170361     0.2237143539    -1.6990669567
   87      H      -6.3434684644     3.5427296586     0.9948244280
   88      H      -4.9874321921     2.4553878726     2.1048944568
   89      H      -0.5082728276     1.7472887336     6.9646352932
   90      H       1.8497220369     1.2516487390     5.8843208878
   91      H       5.4655231227     0.0353596426     5.0713889459
   92      H       6.2714609896     0.3068578463     2.5199511395
   93      H      -9.7496679482     4.0494231907    -1.9849964962
   94      C     -10.9108531393     2.8487686061    -0.5828540211
   95      H     -10.1431460889     2.4026048119    -2.5825784405
   96      H     -10.4840906187     3.3480021024     0.2961139347
   97      H     -11.1503852033     1.7936331499    -0.4021372280
   98      C     -12.1052130743     3.6458463282    -0.9779558441
   99      H     -11.8663590043     4.6909954353    -1.2093560976
  100      C     -13.1524547675     3.3673342664     0.1675330766
  101      H     -12.4318822278     3.3430161450    -1.9811697516
  102      H     -12.6721575772     3.7434113873     1.0781008161
  103      H     -13.3645180278     2.3109724061     0.3719977277
  104      C     -14.5052675440     4.1349431946    -0.0967624499
  105      H     -15.2442561178     3.9203293923     0.6860419980
  106      C     -15.0884233030     4.0697145398    -1.4649450339
  107      H     -14.2849459207     5.2065185731    -0.0167462610
  108      H     -16.0842039335     4.5293101707    -1.4990301012
  109      H     -15.2858693076     3.0017092920    -1.6130931554
  110      H     -14.5138736655     4.4109427266    -2.3350743569
 ----------------------------------------------------------------
 Molecular Point Group                 C1    NOp =  1
 Largest Abelian Subgroup              C1    NOp =  1
 Nuclear Repulsion Energy = 11667.9511334302 hartrees
 There are      270 alpha and      270 beta electrons
 Requested basis set is 6-31G(d,p)
 There are 406 shells and 1262 basis functions

 Total QAlloc Memory Limit  20000 MB
 Mega-Array Size      4888 MB
 MEM_STATIC part      5000 MB
 A cutoff of  1.0D-08 yielded  13142 shell pairs
 There are    140849 function pairs
 
 -------------------------------------------------------
 OpenMP Integral Computing Module                       
 Release: version 1.0, May 2013, Q-Chem Inc. Pittsburgh 
 -------------------------------------------------------
 Integral Job Info:
 Integral job number is                      11
 Integral operator is                         1
 short-range coefficients                     0
 long-range coefficients              100000000
 Omega coefficients                           0
 if combine SR and LR in K                    0
 Integral screening is                        0
 Integral computing path is                   2
 max size of driver memory is            800000
 size of driver memory is                593474
 size of scratch memory is             15166112
 max col of scratch BK array               1296
 max len of scratch array in speh3          155
 max len of scratch index in speh4           18
 max int batch size is                      520
 min int batch size is                       52
 fixed nKL is                                52
 max L of basis functions is                  2
 order of int derivative is                   0
 number of shells is                        406
 number of basis is                        1262
 number of cartesian basis is              1262
 number of contracted shell pairs         13142
 number of primitive shell pairs          42979
 maxK2 (contraction) of shell pair           36
 max number of K2 of shell pair               1
 max number of CS2 of shell pair           1411
 max number of PS2 of shell pair           8178
 mem total for path MDJ                  299720
 -------------------------------------------------------
 Smallest overlap matrix eigenvalue = 4.16E-04

 Scale SEOQF with 1.000000e-02/1.000000e-02/1.000000e-02

 Standard Electronic Orientation quadrupole field applied
 Nucleus-field energy     =     0.0000000952 hartrees
 Guess from superposition of atomic densities
 Warning:  Energy on first SCF cycle will be non-variational
 A restricted hybrid HF-DFT SCF calculation will be
 performed using Pulay DIIS extrapolation
 Exchange:     0.2000 Hartree-Fock + 0.0800 Slater + 0.7200 B88
 Correlation:  0.1900 VWN1RPA + 0.8100 LYP
 Using SG-1 standard quadrature grid
 SCF converges when DIIS error is below 1.0E-05
 using 16 threads for integral computing 
 -------------------------------------------------------
 OpenMP BLAS3 based DFT computing Module                
 Release: version 1.0, May 2013, Q-Chem Inc. Pittsburgh 
 -------------------------------------------------------
 ---------------------------------------
  Cycle       Energy         DIIS Error
 ---------------------------------------
    1   -5680.0668239188      2.14E-02
    2   -5662.4812076254      2.19E-03
    3   -5659.5875460825      3.89E-03
    4   -5661.5680145388      2.22E-03
    5   -5663.4789132635      4.69E-04
    6   -5663.5025091536      3.39E-04
    7   -5663.5207949155      1.55E-04
    8   -5663.5256987867      5.11E-05
    9   -5663.5261281635      2.28E-05
   10   -5663.5262247137      8.68E-06 Convergence criterion met
 ---------------------------------------
 SCF time:  CPU 1124.86 s  wall 92.13 s
 SCF   energy in the final basis set = -5663.5262247137
 Total energy in the final basis set = -5663.5262247137
 
 --------------------------------------------------------------
 
                    Orbital Energies (a.u.)
 --------------------------------------------------------------
 
 Alpha MOs
 -- Occupied --
-88.993 -88.992 -88.928 -88.927 -88.924 -88.922 -88.918 -88.907
-14.393 -14.388 -14.385 -14.374 -14.350 -14.346 -14.343 -14.337
-14.333 -14.324 -10.276 -10.266 -10.262 -10.261 -10.261 -10.259
-10.254 -10.251 -10.248 -10.242 -10.241 -10.240 -10.240 -10.239
-10.238 -10.237 -10.236 -10.234 -10.232 -10.231 -10.229 -10.228
-10.225 -10.224 -10.223 -10.223 -10.221 -10.219 -10.217 -10.217
-10.213 -10.213 -10.210 -10.207 -10.200 -10.199 -10.196 -10.193
-10.189 -10.181 -10.180 -10.179 -10.175 -10.174 -10.174 -10.174
-10.173 -10.171 -10.171 -10.166  -8.048  -8.048  -7.988  -7.986
 -7.986  -7.980  -7.977  -7.968  -6.013  -6.013  -6.007  -6.007
 -6.006  -6.005  -5.952  -5.951  -5.949  -5.949  -5.947  -5.946
 -5.945  -5.945  -5.943  -5.943  -5.941  -5.941  -5.938  -5.937
 -5.933  -5.932  -5.928  -5.924  -1.041  -1.036  -0.984  -0.967
 -0.963  -0.957  -0.929  -0.927  -0.913  -0.907  -0.905  -0.893
 -0.848  -0.841  -0.835  -0.832  -0.812  -0.812  -0.808  -0.806
 -0.803  -0.796  -0.794  -0.794  -0.786  -0.785  -0.772  -0.768
 -0.750  -0.748  -0.743  -0.743  -0.730  -0.717  -0.709  -0.709
 -0.693  -0.692  -0.675  -0.670  -0.655  -0.653  -0.649  -0.647
 -0.633  -0.631  -0.624  -0.622  -0.609  -0.606  -0.601  -0.596
 -0.592  -0.587  -0.582  -0.580  -0.579  -0.578  -0.572  -0.565
 -0.550  -0.549  -0.544  -0.535  -0.529  -0.523  -0.516  -0.508
 -0.506  -0.504  -0.501  -0.495  -0.487  -0.486  -0.482  -0.479
 -0.472  -0.471  -0.470  -0.467  -0.466  -0.461  -0.453  -0.449
 -0.443  -0.443  -0.442  -0.438  -0.435  -0.433  -0.430  -0.429
 -0.428  -0.427  -0.425  -0.423  -0.419  -0.418  -0.416  -0.411
 -0.410  -0.407  -0.404  -0.402  -0.399  -0.399  -0.397  -0.396
 -0.395  -0.394  -0.393  -0.392  -0.391  -0.386  -0.385  -0.382
 -0.376  -0.374  -0.372  -0.371  -0.364  -0.363  -0.357  -0.355
 -0.355  -0.353  -0.352  -0.352  -0.349  -0.348  -0.345  -0.343
 -0.342  -0.339  -0.336  -0.335  -0.328  -0.328  -0.325  -0.320
 -0.319  -0.316  -0.307  -0.304  -0.302  -0.301  -0.300  -0.299
 -0.297  -0.291  -0.289  -0.288  -0.285  -0.284  -0.283  -0.278
 -0.276  -0.272  -0.271  -0.267  -0.258  -0.253  -0.249  -0.246
 -0.246  -0.243  -0.238  -0.229  -0.199  -0.191
 -- Virtual --
 -0.112  -0.110  -0.074  -0.070  -0.041  -0.037  -0.026  -0.024
 -0.022  -0.020  -0.018  -0.016  -0.009  -0.005   0.000   0.000
  0.005   0.008   0.013   0.021   0.027   0.032   0.040   0.041
  0.047   0.054   0.059   0.061   0.072   0.084   0.086   0.090
  0.092   0.098   0.099   0.101   0.102   0.107   0.111   0.113
  0.114   0.117   0.119   0.119   0.121   0.122   0.124   0.125
  0.127   0.128   0.130   0.132   0.134   0.137   0.140   0.146
  0.148   0.148   0.154   0.156   0.158   0.160   0.164   0.167
  0.168   0.170   0.172   0.175   0.176   0.177   0.181   0.185
  0.187   0.188   0.191   0.194   0.197   0.198   0.202   0.203
  0.204   0.206   0.207   0.208   0.210   0.213   0.215   0.217
  0.219   0.221   0.221   0.226   0.227   0.228   0.230   0.235
  0.236   0.238   0.240   0.241   0.248   0.250   0.253   0.259
  0.263   0.266   0.268   0.270   0.272   0.277   0.278   0.281
  0.282   0.288   0.289   0.290   0.295   0.299   0.303   0.303
  0.308   0.311   0.313   0.318   0.319   0.320   0.322   0.325
  0.331   0.336   0.338   0.340   0.343   0.345   0.349   0.355
  0.356   0.357   0.363   0.366   0.368   0.369   0.373   0.375
  0.382   0.385   0.392   0.392   0.395   0.400   0.405   0.408
  0.412   0.418   0.421   0.423   0.426   0.429   0.440   0.443
  0.446   0.451   0.453   0.457   0.460   0.464   0.470   0.476
  0.478   0.483   0.484   0.485   0.488   0.493   0.496   0.499
  0.503   0.507   0.508   0.509   0.513   0.517   0.519   0.522
  0.523   0.525   0.528   0.528   0.532   0.535   0.536   0.537
  0.539   0.540   0.544   0.546   0.547   0.549   0.551   0.554
  0.555   0.557   0.559   0.562   0.562   0.563   0.566   0.569
  0.569   0.574   0.575   0.577   0.578   0.582   0.584   0.585
  0.587   0.589   0.592   0.593   0.597   0.599   0.601   0.602
  0.602   0.604   0.606   0.607   0.609   0.611   0.611   0.614
  0.616   0.620   0.621   0.623   0.625   0.625   0.627   0.632
  0.632   0.633   0.638   0.638   0.640   0.643   0.645   0.649
  0.653   0.655   0.656   0.663   0.664   0.671   0.673   0.677
  0.681   0.681   0.684   0.689   0.691   0.695   0.697   0.698
  0.701   0.703   0.710   0.711   0.713   0.714   0.719   0.721
  0.725   0.728   0.730   0.733   0.739   0.743   0.746   0.749
  0.751   0.754   0.755   0.759   0.762   0.766   0.766   0.770
  0.775   0.777   0.781   0.785   0.786   0.790   0.792   0.795
  0.797   0.799   0.800   0.802   0.803   0.807   0.809   0.810
  0.812   0.814   0.818   0.820   0.821   0.822   0.824   0.825
  0.827   0.829   0.831   0.833   0.835   0.836   0.838   0.839
  0.840   0.842   0.843   0.846   0.848   0.850   0.853   0.854
  0.855   0.856   0.860   0.863   0.865   0.870   0.871   0.872
  0.875   0.879   0.881   0.882   0.884   0.886   0.886   0.889
  0.892   0.894   0.903   0.904   0.907   0.907   0.909   0.910
  0.914   0.916   0.918   0.919   0.924   0.925   0.926   0.927
  0.929   0.934   0.938   0.939   0.941   0.942   0.947   0.948
  0.951   0.951   0.953   0.957   0.958   0.960   0.962   0.967
  0.968   0.970   0.972   0.974   0.975   0.982   0.983   0.987
  0.990   0.992   0.994   0.997   0.999   1.004   1.007   1.009
  1.012   1.016   1.017   1.020   1.022   1.025   1.030   1.035
  1.037   1.039   1.040   1.042   1.047   1.049   1.054   1.055
  1.059   1.061   1.063   1.067   1.071   1.075   1.077   1.084
  1.089   1.091   1.096   1.100   1.107   1.109   1.112   1.117
  1.122   1.124   1.132   1.139   1.143   1.148   1.152   1.155
  1.158   1.163   1.167   1.175   1.179   1.185   1.187   1.192
  1.198   1.206   1.210   1.217   1.223   1.232   1.239   1.240
  1.243   1.245   1.254   1.257   1.260   1.265   1.267   1.269
  1.273   1.278   1.279   1.283   1.287   1.298   1.303   1.306
  1.312   1.315   1.318   1.324   1.327   1.330   1.338   1.340
  1.342   1.347   1.350   1.352   1.359   1.364   1.371   1.373
  1.374   1.383   1.394   1.397   1.399   1.400   1.403   1.408
  1.411   1.416   1.416   1.426   1.428   1.434   1.438   1.439
  1.443   1.445   1.449   1.460   1.466   1.469   1.477   1.480
  1.481   1.482   1.487   1.492   1.495   1.503   1.507   1.510
  1.513   1.515   1.527   1.530   1.543   1.546   1.556   1.559
  1.562   1.575   1.580   1.583   1.587   1.591   1.601   1.612
  1.619   1.620   1.623   1.632   1.642   1.645   1.647   1.649
  1.658   1.659   1.667   1.669   1.673   1.674   1.676   1.682
  1.683   1.691   1.692   1.695   1.696   1.702   1.703   1.708
  1.710   1.713   1.718   1.718   1.727   1.731   1.735   1.739
  1.742   1.755   1.756   1.760   1.765   1.768   1.772   1.780
  1.783   1.785   1.786   1.789   1.792   1.803   1.810   1.817
  1.825   1.827   1.828   1.833   1.833   1.835   1.840   1.840
  1.845   1.855   1.858   1.861   1.863   1.866   1.867   1.876
  1.880   1.883   1.884   1.885   1.890   1.897   1.897   1.904
  1.905   1.910   1.916   1.919   1.923   1.926   1.927   1.930
  1.934   1.939   1.943   1.945   1.948   1.955   1.956   1.956
  1.962   1.965   1.970   1.973   1.981   1.985   1.988   1.993
  1.994   1.996   1.999   2.005   2.008   2.012   2.014   2.030
  2.031   2.037   2.043   2.049   2.052   2.060   2.064   2.068
  2.068   2.072   2.073   2.083   2.093   2.094   2.099   2.103
  2.107   2.109   2.113   2.113   2.115   2.119   2.122   2.132
  2.132   2.135   2.141   2.142   2.149   2.150   2.154   2.160
  2.163   2.164   2.172   2.175   2.178   2.180   2.182   2.182
  2.185   2.186   2.191   2.193   2.201   2.208   2.210   2.222
  2.231   2.235   2.236   2.238   2.246   2.247   2.251   2.256
  2.258   2.259   2.262   2.264   2.267   2.276   2.278   2.279
  2.281   2.282   2.289   2.293   2.300   2.301   2.306   2.309
  2.312   2.313   2.316   2.320   2.322   2.326   2.329   2.333
  2.334   2.335   2.340   2.344   2.344   2.350   2.353   2.356
  2.359   2.363   2.366   2.372   2.377   2.384   2.389   2.396
  2.402   2.406   2.409   2.410   2.412   2.415   2.417   2.420
  2.423   2.424   2.428   2.433   2.436   2.439   2.442   2.443
  2.449   2.453   2.455   2.458   2.462   2.463   2.466   2.468
  2.472   2.476   2.478   2.481   2.486   2.487   2.491   2.492
  2.505   2.506   2.508   2.512   2.514   2.519   2.531   2.534
  2.540   2.548   2.551   2.555   2.559   2.560   2.563   2.566
  2.567   2.571   2.578   2.585   2.590   2.596   2.602   2.615
  2.618   2.620   2.623   2.627   2.632   2.640   2.644   2.645
  2.648   2.659   2.659   2.666   2.669   2.671   2.672   2.678
  2.682   2.684   2.686   2.689   2.693   2.696   2.698   2.705
  2.716   2.720   2.721   2.724   2.726   2.732   2.743   2.745
  2.753   2.764   2.767   2.775   2.780   2.792   2.793   2.795
  2.801   2.803   2.810   2.814   2.822   2.830   2.832   2.843
  2.848   2.850   2.853   2.862   2.868   2.870   2.881   2.883
  2.884   2.890   2.895   2.897   2.901   2.901   2.906   2.917
  2.918   2.921   2.922   2.935   2.935   2.944   2.945   2.951
  2.954   2.956   2.982   2.985   2.988   2.992   2.995   3.020
  3.030   3.039   3.051   3.051   3.087   3.096   3.099   3.112
  3.146   3.154   3.178   3.187   3.199   3.216   3.224   3.245
  3.245   3.250   3.252   3.264   3.267   3.271   3.278   3.280
  3.292   3.293   3.298   3.307   3.311   3.312   3.313   3.336
  3.341   3.358   3.360   3.373   3.393   3.400   3.416   3.420
  3.429   3.452   3.474   3.474   3.495   3.497   3.535   3.536
  3.545   3.567   3.575   3.580   3.583   3.584   3.596   3.601
  3.627   3.649   3.713   3.749   3.857   3.870   3.909   3.918
  3.935   3.945   3.951   3.961   3.973   3.980   3.988   3.993
  4.009   4.059   4.076   4.077   4.084   4.089   4.100   4.110
  4.112   4.128   4.138   4.142   4.145   4.174   4.177   4.182
  4.195   4.211   4.230   4.254   4.255   4.266   4.266   4.274
  4.291   4.298   4.332   4.339   4.367   4.372   4.375   4.396
  4.402   4.427   4.431   4.448   4.473   4.474   4.481   4.489
  4.496   4.523   4.525   4.532   4.565   4.582   4.644   4.658
  4.678   4.681   4.697   4.728   4.779   4.784   4.789   4.813
 --------------------------------------------------------------
 
          Ground-State Mulliken Net Atomic Charges

     Atom                 Charge (a.u.)
  ----------------------------------------
      1 C                     0.246398
      2 C                    -0.116607
      3 N                    -0.476100
      4 C                    -0.063130
      5 C                     0.077420
      6 C                     0.016553
      7 C                     0.036210
      8 C                     0.050558
      9 C                     0.222848
     10 N                    -0.508466
     11 N                    -0.567902
     12 C                     0.179984
     13 C                     0.360695
     14 S                     0.621080
     15 N                    -0.549134
     16 C                    -0.232533
     17 S                     0.357483
     18 C                    -0.122954
     19 C                    -0.229708
     20 S                     0.268919
     21 C                     0.127072
     22 C                     0.068863
     23 C                    -0.311096
     24 C                    -0.070142
     25 N                    -0.424268
     26 S                     0.242252
     27 C                     0.110739
     28 C                    -0.303166
     29 C                    -0.225634
     30 H                     0.090929
     31 H                     0.136548
     32 H                     0.105829
     33 H                     0.119706
     34 H                     0.126426
     35 H                     0.125083
     36 H                     0.123082
     37 H                     0.143319
     38 H                     0.103258
     39 C                    -0.177654
     40 H                     0.120095
     41 H                     0.092102
     42 H                     0.107516
     43 C                    -0.178386
     44 H                     0.087435
     45 C                    -0.159710
     46 H                     0.090344
     47 H                     0.087652
     48 H                     0.093996
     49 C                    -0.170724
     50 H                     0.090631
     51 C                    -0.322071
     52 H                     0.092354
     53 H                     0.101057
     54 H                     0.096839
     55 H                     0.100297
     56 C                     0.268491
     57 C                    -0.118766
     58 N                    -0.496345
     59 C                    -0.080892
     60 C                     0.062055
     61 C                     0.066542
     62 C                     0.077570
     63 C                     0.029638
     64 C                     0.225030
     65 N                    -0.529019
     66 N                    -0.575015
     67 C                     0.193229
     68 C                     0.311490
     69 S                     0.616135
     70 N                    -0.575303
     71 C                    -0.228074
     72 S                     0.303903
     73 C                    -0.106961
     74 C                    -0.252484
     75 S                     0.284711
     76 C                     0.171008
     77 C                     0.066075
     78 C                    -0.311131
     79 C                    -0.041107
     80 N                    -0.452024
     81 S                     0.303557
     82 C                     0.131983
     83 C                    -0.312616
     84 C                    -0.230917
     85 H                     0.092260
     86 H                     0.113957
     87 H                     0.104464
     88 H                     0.107936
     89 H                     0.124090
     90 H                     0.130769
     91 H                     0.114622
     92 H                     0.132414
     93 H                     0.118858
     94 C                    -0.166773
     95 H                     0.088225
     96 H                     0.126338
     97 H                     0.095146
     98 C                    -0.174100
     99 H                     0.096657
    100 C                    -0.183660
    101 H                     0.089449
    102 H                     0.099163
    103 H                     0.092754
    104 C                    -0.180099
    105 H                     0.087416
    106 C                    -0.310491
    107 H                     0.090593
    108 H                     0.098574
    109 H                     0.093683
    110 H                     0.104802
  ----------------------------------------
  Sum of atomic charges =     0.000000

 -----------------------------------------------------------------
                    Cartesian Multipole Moments
 -----------------------------------------------------------------
    Charge (ESU x 10^10)
                 0.0000
    Dipole Moment (Debye)
         X       2.3492      Y       0.4667      Z      -0.7490
       Tot       2.5095
    Quadrupole Moments (Debye-Ang)
        XX    -392.9834     XY      32.3535     YY    -442.1576
        XZ      18.9072     YZ      -3.7281     ZZ    -440.8735
    Octopole Moments (Debye-Ang^2)
       XXX     522.9273    XXY     136.8730    XYY     155.5110
       YYY     180.4362    XXZ      19.7868    XYZ     -23.4568
       YYZ      -9.7708    XZZ     -30.2755    YZZ      33.0171
       ZZZ      66.3093
    Hexadecapole Moments (Debye-Ang^3)
      XXXX  -88921.6588   XXXY    2591.3806   XXYY  -20871.1719
      XYYY    2027.1502   YYYY  -37307.0056   XXXZ    1247.3487
      XXYZ    -327.6333   XYYZ      19.3769   YYYZ    -498.7029
      XXZZ  -17957.7574   XYZZ    -111.1016   YYZZ   -8764.7486
      XZZZ     208.6656   YZZZ     177.7554   ZZZZ  -12423.8012
 -----------------------------------------------------------------
Archival summary:
1\1\mn246\SP\ProcedureUnspecified\6-31G**\8105042\afmv_a\FriOct1203:12:182018FriOct1203:12:182018\0\\#,ProcedureUnspecified,6-31G**,\\0,1\S\C,1,1.77987\C,2,1.34792,1,111.803\C,3,1.38655,2,133.617,1,-175.014,0\H,4,1.08469,3,126.495,2,-10.6844,0\C,4,1.38357,3,109.917,2,-179.991,0\H,6,1.08157,4,128.241,3,174.535,0\C,3,1.44045,2,114.081,1,-0.405854,0\C,8,1.38912,3,113.777,2,-3.51663,0\C,2,1.44268,1,124.647,3,177.012,0\N,10,1.33795,2,118.436,1,162.239,0\C,11,1.37899,10,106.039,2,-174.028,0\H,12,1.08249,11,117.639,10,172.986,0\C,12,1.34185,11,112.964,10,2.44965,0\H,14,1.08152,12,127.74,11,-174.648,0\C,9,1.48886,8,122.948,3,168.909,0\N,16,1.32948,9,118.564,8,-8.52894,0\C,17,1.37093,16,117.05,9,-175.212,0\H,18,1.08888,17,112.687,16,-177.219,0\C,18,1.40082,17,129.087,16,-5.90069,0\C,20,1.3987,18,111.85,17,5.62846,0\N,21,1.36124,20,126.078,18,175.699,0\C,21,1.36679,20,122.333,18,-2.55123,0\N,23,1.38048,21,114.412,20,175.719,0\C,20,1.49372,18,122.888,17,178.647,0\C,25,1.40033,20,119.158,18,-10.0315,0\H,26,1.08897,25,124.708,20,-8.56546,0\N,26,1.35491,25,122.696,20,171.537,0\C,28,1.37821,26,120.231,25,0.987446,0\C,29,1.37517,28,121.367,26,2.48539,0\H,30,1.0854,29,120.316,28,179.572,0\C,25,1.40388,20,125.117,18,156.823,0\H,32,1.08518,25,116.088,20,-2.90422,0\C,29,1.49181,28,115.654,26,179.449,0\H,34,1.09682,29,104.992,28,-60.3096,0\H,34,1.09773,29,106.631,28,-176.803,0\C,34,1.54207,29,114.01,28,60.5488,0\H,37,1.09697,34,111.086,29,71.2655,0\H,37,1.09724,34,105.887,29,-51.7582,0\C,37,1.48927,34,107.603,29,-165.132,0\H,40,1.09678,37,113.038,34,54.4132,0\H,40,1.09766,37,109.48,34,-53.399,0\C,40,1.57684,37,104.203,34,-176.52,0\H,43,1.09602,40,104.589,37,-61.3366,0\H,43,1.09667,40,115.722,37,53.7515,0\C,43,1.57771,40,111.213,37,179.537,0\H,46,1.09691,43,106.909,40,66.3225,0\H,46,1.0977,43,111.264,40,-178.475,0\C,46,1.48871,43,117.938,40,-46.2748,0\H,49,1.09616,46,103.737,43,-61.5979,0\H,49,1.09712,46,120.672,43,57.8934,0\H,49,1.09726,46,111.45,43,-172.82,0\S,24,1.61692,23,107.164,21,-0.610805,0\S,10,1.70565,2,119.214,1,-14.6623,0\S,8,1.72501,3,113.604,2,-172.426,0\H,24,2.83634,23,147.076,21,105.977,0\C,56,1.08559,24,179.036,23,-124.127,0\C,57,1.41924,56,125.55,24,-107.056,0\C,57,1.42247,56,115.764,24,74.1789,0\H,59,1.08578,57,122.118,56,-2.25605,0\C,59,1.41056,57,119.487,56,173.039,0\N,61,1.39077,59,122.348,57,3.13178,0\C,62,1.3423,61,117.636,59,0.805466,0\H,63,1.08843,62,110.364,61,176.347,0\C,58,1.51326,57,122.572,56,11.3971,0\C,65,1.3886,58,123.699,57,-146.585,0\H,66,1.08858,65,122.659,58,-1.31913,0\N,66,1.33796,65,121.153,58,175.811,0\C,68,1.25862,66,126.475,65,8.88996,0\C,69,1.42729,68,118.344,66,-10.9003,0\N,70,1.3713,69,130.42,68,-168.657,0\C,70,1.41196,69,117.089,68,8.12932,0\N,72,1.36427,70,115.111,69,-173.953,0\C,69,1.45389,68,113.35,66,-176.807,0\C,74,1.41986,69,125.899,68,-8.70769,0\C,75,1.40933,74,114.502,69,178.779,0\C,76,1.40284,75,113.278,74,-5.90096,0\C,76,1.40977,75,114.578,74,-175.181,0\H,78,1.08395,76,131.19,75,178.519,0\C,78,1.38042,76,110.869,75,-6.91385,0\H,80,1.08151,78,123.191,76,-172.261,0\C,77,1.47674,76,126.19,75,-178.147,0\N,82,1.29594,77,116.871,76,164.457,0\C,83,1.41854,82,111.678,77,-177.067,0\H,84,1.08242,83,120.311,82,-173.662,0\C,84,1.40391,83,114.203,82,-6.26072,0\H,86,1.08225,84,134.126,83,-169.176,0\C,61,1.59279,59,119.199,57,-174.428,0\H,88,1.09672,61,109.4,59,-165.997,0\H,88,1.0973,61,114.946,59,-43.5275,0\C,88,1.55173,61,107.389,59,78.1628,0\H,91,1.09642,88,112.19,61,51.1948,0\H,91,1.0976,88,114.967,61,-63.7945,0\C,91,1.52595,88,110.103,61,176.488,0\H,94,1.09659,91,109.8,88,-51.0048,0\H,94,1.09704,91,109.75,88,63.0429,0\C,94,1.52745,91,111.564,88,-177.046,0\H,97,1.09693,94,111.684,91,54.8909,0\H,97,1.09727,94,108.262,91,-68.6863,0\C,97,1.48647,94,110.378,91,175.758,0\H,100,1.09701,97,108.273,94,48.4123,0\H,100,1.09731,97,108.235,94,-69.3556,0\C,100,1.54196,97,111.283,94,166.611,0\H,103,1.09658,100,110.786,97,178.392,0\H,103,1.09724,100,108.296,97,-59.1206,0\H,103,1.09731,100,117.841,97,60.9105,0\S,71,1.61245,70,106.255,69,177.793,0\S,74,1.68666,69,123.644,68,168.127,0\S,75,1.7634,74,133.156,69,-7.11697,0\S,82,1.78583,77,126.428,76,-12.5333,0\\\@

 Total job time:  95.28s(wall), 1134.23s(cpu) 
 Fri Oct 12 03:12:18 2018

        *************************************************************
        *                                                           *
        *  Thank you very much for using Q-Chem.  Have a nice day.  *
        *                                                           *
        *************************************************************


