
Running Job 1 of 1 ./9/87.qcin
qchem ./9/87.qcin_1828.0 /tmpu/cab_g/afmv_a/scratch_qchem/qchem1828/ 1
/tmpu/appuserlic/qchem4.4/serial-multicore/exe/qcprog.exe_s ./9/87.qcin_1828.0 /tmpu/cab_g/afmv_a/scratch_qchem/qchem1828/
Check license passed

                  Welcome to Q-Chem
     A Quantum Leap Into The Future Of Chemistry


 Q-Chem 4.4, Q-Chem, Inc., Pleasanton, CA (2016)

 Y. Shao,  Z. Gan,  E. Epifanovsky,  A. T. B. Gilbert,  M. Wormit,  
 J. Kussmann,  A. W. Lange,  A. Behn,  J. Deng,  X. Feng,  D. Ghosh,  
 M. Goldey,  P. R. Horn,  L. D. Jacobson,  I. Kaliman,  F. Rob,  
 R. Z. Khaliullin,  T. Kus,  A. Landau,  J. Liu,  E. I. Proynov,  Y. M. Rhee,  
 R. M. Richard,  M. A. Rohrdanz,  R. P. Steele,  E. J. Sundstrom,  
 H. L. Woodcock III,  P. M. Zimmerman,  D. Zuev,  B. Albrecht,  E. Alguire,  
 B. Austin,  S. A. Baeppler,  G. J. O. Beran,  Y. A. Bernard,  E. Berquist,  
 K. Brandhorst,  K. B. Bravaya,  S. T. Brown,  D. Casanova,  C.-M. Chang,  
 Y. Chen,  S. H. Chien,  K. D. Closser,  M. P. Coons,  D. L. Crittenden,  
 S. Dasgupta,  M. Diedenhofen,  R. A. DiStasio Jr.,  H. Do,  A. D. Dutoi,  
 R. G. Edgar,  P.-T. Fang,  S. Fatehi,  Q. Feng,  L. Fusti-Molnar,  
 A. Ghysels,  A. Golubeva-Zadorozhnaya,  J. Gomes,  A. Gunina,  
 M. W. D. Hanson-Heine,  P. H. P. Harbach,  A. W. Hauser,  J. E. Herr,  
 E. G. Hohenstein,  Z. C. Holden,  K. Hui,  T.-C. Jagau,  H. Ji,  B. Kaduk,  
 K. Khistyaev,  Jaehoon Kim,  Jihan Kim,  R. A. King,  P. Klunzinger,  
 K. Koh,  D. Kosenkov,  T. Kowalczyk,  C. M. Krauter,  A. Kunitsa,  
 K. U. Lao,  A. Laurent,  K. V. Lawler,  J. Lee,  D. Lefrancois,  S. Lehtola,  
 S. V. Levchenko,  C. Y. Lin,  Y.-S. Lin,  F. Liu,  E. Livshits,  
 R. C. Lochan,  A. Luenser,  P. Manohar,  S. F. Manzer,  S.-P. Mao,  Y. Mao,  
 N. Mardirossian,  A. V. Marenich,  L. A. Martinez-Martinez,  S. A. Maurer,  
 N. J. Mayhall,  J.-M. Mewes,  A. F. Morrison,  K. Nanda,  T. S. Nguyen-Beck,  
 C. M. Oana,  R. Olivares-Amaya,  D. P. O'Neill,  J. A. Parkhill,  
 T. M. Perrine,  R. Peverati,  P. A. Pieniazek,  F. Plasser,  A. Prociuk,  
 D. R. Rehn,  E. Rosta,  N. J. Russ,  N. Sergueev,  S. M. Sharada,  
 S. Sharma,  D. W. Small,  A. Sodt,  T. Stauch,  T. Stein,  D. Stuck,  
 Y.-C. Su,  A. J. W. Thom,  T. Tsuchimochi,  L. Vogt,  O. Vydrov,  T. Wang,  
 M. A. Watson,  J. Wenzel,  A. White,  C. F. Williams,  V. Vanovschi,  
 K. Yao,  S. Yeganeh,  S. R. Yost,  Z.-Q. You,  I. Y. Zhang,  X. Zhang,  
 Y. Zhao,  B. R. Brooks,  G. K. L. Chan,  D. M. Chipman,  C. J. Cramer,  
 W. A. Goddard III,  M. S. Gordon,  W. J. Hehre,  A. Klamt,  
 H. F. Schaefer III,  M. W. Schmidt,  C. D. Sherrill,  D. G. Truhlar,  
 A. Warshel,  X. Xu,  A. Aspuru-Guzik,  R. Baer,  A. T. Bell,  N. A. Besley,  
 J.-D. Chai,  A. Dreuw,  B. D. Dunietz,  T. R. Furlani,  S. R. Gwaltney,  
 C.-P. Hsu,  Y. Jung,  J. Kong,  D. S. Lambrecht,  W. Liang,  C. Ochsenfeld,  
 V. A. Rassolov,  L. V. Slipchenko,  J. E. Subotnik,  T. Van Voorhis,  
 J. M. Herbert,  A. I. Krylov,  P. M. W. Gill,  M. Head-Gordon

 Contributors to earlier versions of Q-Chem not listed above: 
 R. D. Adamson,  J. Baker,  E. F. C. Byrd,  A. K. Chakraborty,  C.-L. Cheng,  
 H. Dachsel,  R. J. Doerksen,  G. Hawkins,  A. Heyden,  S. Hirata,  
 G. Kedziora,  F. J. Keil,  C. Kelley,  P. P. Korambath,  W. Kurlancheek,  
 A. M. Lee,  M. S. Lee,  D. Liotard,  I. Lotan,  P. E. Maslen,  N. Nair,  
 D. Neuhauser,  R. Olson,  B. Peters,  J. Ritchie,  N. E. Schultz,  
 N. Shenvi,  A. C. Simmonett,  K. S. Thanthiriwatte,  Q. Wu,  W. Zhang

 Please cite Q-Chem as follows:
 Y. Shao et al., Mol. Phys. 113, 184-215 (2015)
 DOI: 10.1080/00268976.2014.952696

 Q-Chem 4.4.2 for Intel X86 Linux

 Parts of Q-Chem use Armadillo 5.200.1 (Boston Tea Smuggler).
 http://arma.sourceforge.net/

 Q-Chem begins on Fri Oct 12 03:32:03 2018  

Host: 
0

     Scratch files written to /tmpu/cab_g/afmv_a/scratch_qchem/qchem1828//
 Dec716 11556_ 22328  22283 4050   
Processing $rem in /tmpu/appuserlic/qchem4.4/serial-multicore/config/preferences.
 MEM_TOTAL  2000 
FILE_GEOM_ORG=        593

Checking the input file for inconsistencies... 	...done.

--------------------------------------------------------------
User input:
--------------------------------------------------------------
$comment
SP
$end

$rem
MEM_STATIC 5000
MEM_TOTAL 20000
JOBTYPE SP
EXCHANGE B3LYP
BASIS 6-31g(d,p)
$end

$molecule
0 1
C         -20.806000     -0.023000    -13.332000
C         -19.998000     -0.711000    -14.222000
N         -20.402000      0.289000    -12.046000
C         -18.648000     -0.903000    -13.903000
C         -19.120000      0.048000    -11.739000
C         -18.183000     -0.508000    -12.616000
C         -16.772000     -0.758000    -12.184000
C         -15.988000     -1.642000    -12.921000
C         -16.097000     -0.048000    -11.128000
N         -14.697000     -1.900000    -12.631000
N         -16.636000      0.927000    -10.370000
C         -14.861000     -0.503000    -10.739000
C         -14.139000     -1.413000    -11.527000
S         -15.498000      1.194000     -9.204000
N         -14.423000      0.106000     -9.604000
C         -12.680000     -1.759000    -11.227000
S         -11.844000     -1.300000     -9.757000
C         -11.800000     -2.246000    -12.124000
C         -10.341000     -1.946000    -10.401000
S         -12.011000     -2.690000    -13.799000
C         -10.509000     -2.445000    -11.616000
C          -9.116000     -2.033000     -9.644000
C         -10.344000     -3.238000    -13.903000
C          -9.736000     -3.077000    -12.684000
N          -8.183000     -2.823000    -10.096000
S          -8.754000     -0.982000     -8.255000
C          -7.030000     -2.628000     -9.387000
C          -7.191000     -1.737000     -8.367000
C         -22.243000      0.322000    -13.789000
H         -20.462000     -1.010000    -15.157000
H         -17.948000     -1.328000    -14.616000
H         -18.883000      0.498000    -10.776000
H         -16.318000     -2.156000    -13.822000
H          -9.987000     -3.674000    -14.826000
H          -8.745000     -3.448000    -12.451000
H          -6.180000     -3.261000     -9.607000
H          -6.417000     -1.486000     -7.653000
H         -22.210000      0.723000    -14.810000
C         -23.040000      1.327000    -12.830000
H         -22.749000     -0.651000    -13.794000
H         -22.455000      2.139000    -12.382000
H         -23.378000      0.655000    -12.032000
C         -24.310000      1.821000    -13.492000
H         -24.138000      2.605000    -14.239000
C         -25.170000      2.412000    -12.386000
H         -24.815000      1.008000    -14.030000
H         -24.698000      3.255000    -11.866000
H         -25.420000      1.749000    -11.549000
C         -26.487000      2.970000    -13.007000
H         -26.274000      3.629000    -13.857000
C         -27.317000      3.722000    -12.001000
H         -27.008000      2.120000    -13.467000
H         -26.823000      4.561000    -11.496000
H         -27.608000      3.178000    -11.093000
H         -28.243000      4.046000    -12.491000
C         -15.585000      6.018000     -9.127000
C         -15.068000      5.168000     -8.137000
N         -15.362000      5.758000    -10.431000
C         -14.101000      4.232000     -8.486000
C         -14.529000      4.784000    -10.726000
C         -13.759000      3.977000     -9.838000
C         -12.558000      3.245000    -10.199000
C         -11.436000      3.271000     -9.334000
C         -12.632000      2.366000    -11.320000
N         -10.282000      2.615000     -9.732000
N         -13.707000      2.200000    -12.120000
C         -11.452000      1.721000    -11.685000
C         -10.265000      1.915000    -10.881000
S         -13.087000      1.426000    -13.448000
N         -11.511000      1.181000    -12.913000
C          -8.978000      1.294000    -11.198000
S          -8.779000      0.216000    -12.584000
C          -7.713000      1.672000    -10.747000
C          -7.029000      0.013000    -12.240000
S          -7.270000      2.636000     -9.398000
C          -6.638000      0.974000    -11.327000
C          -6.131000     -0.720000    -13.016000
C          -5.602000      2.372000     -9.921000
C          -5.423000      1.357000    -10.831000
N          -6.635000     -1.223000    -14.167000
S          -4.540000     -1.190000    -12.604000
C          -5.671000     -1.920000    -14.820000
C          -4.434000     -1.956000    -14.143000
C         -16.448000      7.185000     -8.744000
H         -15.354000      5.303000     -7.098000
H         -13.461000      3.712000     -7.779000
H         -14.264000      4.679000    -11.777000
H         -11.406000      3.848000     -8.411000
H          -4.832000      2.984000     -9.470000
H          -4.454000      0.961000    -11.112000
H          -5.876000     -2.399000    -15.768000
H          -3.536000     -2.524000    -14.343000
H         -16.403000      7.412000     -7.671000
C         -17.869000      6.836000     -9.206000
H         -16.202000      8.066000     -9.349000
H         -17.939000      6.662000    -10.287000
H         -18.428000      7.772000     -9.085000
C         -18.568000      5.755000     -8.352000
H         -18.031000      4.841000     -8.633000
C         -20.104000      5.651000     -8.686000
H         -18.373000      5.951000     -7.290000
H         -20.638000      6.386000     -8.071000
H         -20.460000      4.736000     -8.196000
C         -20.511000      5.543000    -10.200000
H         -20.290000      6.445000    -10.785000
C         -22.104000      5.491000    -10.312000
H         -19.904000      4.752000    -10.656000
H         -22.415000      5.494000    -11.364000
H         -22.547000      6.326000     -9.755000
H         -22.475000      4.564000     -9.857000
$end

--------------------------------------------------------------
 ----------------------------------------------------------------
             Standard Nuclear Orientation (Angstroms)
    I     Atom           X                Y                Z
 ----------------------------------------------------------------
    1      C       6.8843758980     3.3446831300    -0.2292859005
    2      C       5.9437690994     4.2316781000    -0.7260824119
    3      N       6.5549544059     2.3138949430     0.6328702303
    4      C       4.5841022235     3.9522622272    -0.5407239573
    5      C       5.2497942919     2.0943102821     0.8430930971
    6      C       4.2151496970     2.8411763018     0.2704363842
    7      C       2.7814664101     2.5360321072     0.5729000239
    8      C       1.8162571631     3.5050235228     0.3107783991
    9      C       2.2854147184     1.2516350995     0.9961234233
   10      N       0.4984624334     3.3067913601     0.5144105673
   11      N       3.0341004876     0.1490538177     1.1948547395
   12      C       0.9733593467     1.1715302756     1.3937864952
   13      C       0.0626343620     2.2015142552     1.1108713068
   14      S       1.9820877567    -0.9231877352     1.8800235261
   15      N       0.6828153500    -0.0268537921     1.9685993451
   16      C      -1.4393421524     2.0370084115     1.3462462787
   17      S      -2.1550269847     0.7020226590     2.2272032933
   18      C      -2.4020488627     2.7494331560     0.7283265643
   19      C      -3.7628450779     1.2857216554     1.8206599858
   20      S      -2.2880840508     4.0612546986    -0.4177180518
   21      C      -3.7077140604     2.3848363449     1.0842107545
   22      C      -4.9799469256     0.7075180814     2.3360110500
   23      C      -4.0365939935     4.2402053244    -0.4441501124
   24      C      -4.5994691733     3.3293432393     0.4131991710
   25      N      -6.0700143226     1.4161434371     2.2438363499
   26      S      -5.0938242341    -0.9749931738     2.9027154126
   27      C      -7.1497401129     0.6474799899     2.5806801158
   28      C      -6.7904482824    -0.6021930508     2.9922972582
   29      C       8.3661096629     3.5907907167    -0.5990684118
   30      H       6.3315100627     5.0733433782    -1.2919255922
   31      H       3.8093683237     4.5494282185    -1.0120775011
   32      H       5.1181857748     1.1583423269     1.3840932681
   33      H       2.0224471670     4.4778636661    -0.1319006471
   34      H      -4.4789606910     5.0271116832    -1.0396029547
   35      H      -5.6522348720     3.3129288367     0.6689841414
   36      H      -8.1238888097     1.1182432370     2.6123862950
   37      H      -7.4887828716    -1.3453680484     3.3554676377
   38      H       8.4382334577     3.8098273934    -1.6719859727
   39      C       9.3707766980     2.4051217753    -0.2120951441
   40      H       8.6263728968     4.4876563567    -0.0240161769
   41      H       8.9916664788     1.3843859383    -0.3411175949
   42      H       9.5324271616     2.5879934485     0.8570442662
   43      C      10.7274970596     2.6079207648    -0.8550278237
   44      H      10.7532602176     2.3382573498    -1.9175093069
   45      C      11.6936808753     1.6933189017    -0.1187471256
   46      H      11.0294468918     3.6626301572    -0.8119883492
   47      H      11.4310707930     0.6302810016    -0.1881687916
   48      H      11.7716568445     1.8305228266     0.9664868727
   49      C      13.1109078571     1.8307561242    -0.7544142490
   50      H      13.0680323812     1.7110886789    -1.8434465699
   51      C      14.0870872249     0.8328771666    -0.1907198032
   52      H      13.4189270108     2.8765663933    -0.6242371309
   53      H      13.8022880011    -0.2230564869    -0.2736385682
   54      H      14.2325537004     0.8423307190     0.8973202396
   55      H      15.0677794286     1.0142936286    -0.6466615416
   56      C       3.2124808131    -4.8913743498    -0.5743810695
   57      C       2.4996910329    -4.8339240797     0.6333106111
   58      N       2.9454095465    -4.0157222902    -1.5641544826
   59      C       1.3410036639    -4.0684012459     0.6996760525
   60      C       1.9073762879    -3.2222434338    -1.4142603250
   61      C       0.9599523795    -3.1940525280    -0.3492315880
   62      C      -0.3774298795    -2.6344631029    -0.4317807780
   63      C      -1.4685677348    -3.3434609983     0.1290446538
   64      C      -0.5047356084    -1.2939987077    -0.9026379290
   65      N      -2.7419137599    -2.8167746495    -0.0180858674
   66      N       0.5069114287    -0.5149533206    -1.3417729392
   67      C      -1.8010077367    -0.7992620343    -1.0313398845
   68      C      -2.9148207153    -1.6252249343    -0.6187542128
   69      S      -0.2677259942     0.7163910909    -2.1359944469
   70      N      -1.8613808663     0.3191379610    -1.7720162887
   71      C      -4.3097351382    -1.1970036131    -0.7342498958
   72      S      -4.7472034000     0.3964535228    -1.3605061340
   73      C      -5.4525111594    -1.9973133816    -0.7254612758
   74      C      -6.4982239482     0.0344074197    -1.2027257190
   75      S      -5.6653947424    -3.6028394800    -0.1577355255
   76      C      -6.6575257645    -1.3222479025    -0.9927727054
   77      C      -7.5379338808     0.8788447245    -1.5923382113
   78      C      -7.3437361851    -3.4291871829    -0.6854322959
   79      C      -7.7509389897    -2.1412711620    -0.9419945673
   80      N      -7.1579509121     2.0121304666    -2.2272416451
   81      S      -9.1985675318     0.7292467394    -1.2157199430
   82      C      -8.2542789133     2.7476029859    -2.5413420864
   83      C      -9.4702199995     2.1687186025    -2.1216110470
   84      C       4.3247607317    -5.8844552085    -0.7475018098
   85      H       2.8005464755    -5.4514928220     1.4745221489
   86      H       0.5896350908    -4.1513639012     1.4796834020
   87      H       1.6341528193    -2.6185968471    -2.2784424438
   88      H      -1.3685835573    -4.3211670179     0.5979285451
   89      H      -7.9500995052    -4.3241657194    -0.7321435716
   90      H      -8.7838135131    -1.8544179661    -1.1020678718
   91      H      -8.1607751062     3.6929028746    -3.0588700166
   92      H     -10.4757159927     2.5661397652    -2.1137226273
   93      H       4.3256852154    -6.6602620716     0.0290327075
   94      C       5.6260485635    -5.0714417853    -0.7595497300
   95      H       4.3004687063    -6.3248062600    -1.7515948578
   96      H       5.6620731244    -4.3297455812    -1.5672167231
   97      H       6.3904237381    -5.7930475866    -1.0729722245
   98      C       6.0406435343    -4.5141116620     0.6202952410
   99      H       5.3042556876    -3.7194918361     0.7907014367
  100      C       7.5107507941    -3.9482934447     0.6029058865
  101      H       5.8885997663    -5.2878943184     1.3834650079
  102      H       8.1987793798    -4.7781677543     0.8066981718
  103      H       7.6348041871    -3.3963595096     1.5431402653
  104      C       7.8935528196    -2.9601288127    -0.5574829575
  105      H       7.8983609477    -3.4236049237    -1.5523883683
  106      C       9.4294555191    -2.5459949449    -0.4078399252
  107      H       7.1199279779    -2.1848874228    -0.6081918504
  108      H       9.7413817391    -1.9176647382    -1.2512480023
  109      H      10.0533668910    -3.4439473391    -0.3176229775
  110      H       9.5655303516    -1.9623571274     0.5113148703
 ----------------------------------------------------------------
 Molecular Point Group                 C1    NOp =  1
 Largest Abelian Subgroup              C1    NOp =  1
 Nuclear Repulsion Energy = 12715.2019055393 hartrees
 There are      270 alpha and      270 beta electrons
 Requested basis set is 6-31G(d,p)
 There are 406 shells and 1262 basis functions

 Total QAlloc Memory Limit  20000 MB
 Mega-Array Size      4888 MB
 MEM_STATIC part      5000 MB
 A cutoff of  1.0D-08 yielded  15478 shell pairs
 There are    167840 function pairs
 
 -------------------------------------------------------
 OpenMP Integral Computing Module                       
 Release: version 1.0, May 2013, Q-Chem Inc. Pittsburgh 
 -------------------------------------------------------
 Integral Job Info:
 Integral job number is                      11
 Integral operator is                         1
 short-range coefficients                     0
 long-range coefficients              100000000
 Omega coefficients                           0
 if combine SR and LR in K                    0
 Integral screening is                        0
 Integral computing path is                   2
 max size of driver memory is            800000
 size of driver memory is                593474
 size of scratch memory is             15166112
 max col of scratch BK array               1296
 max len of scratch array in speh3          155
 max len of scratch index in speh4           18
 max int batch size is                      520
 min int batch size is                       52
 fixed nKL is                                52
 max L of basis functions is                  2
 order of int derivative is                   0
 number of shells is                        406
 number of basis is                        1262
 number of cartesian basis is              1262
 number of contracted shell pairs         15478
 number of primitive shell pairs          48441
 maxK2 (contraction) of shell pair           36
 max number of K2 of shell pair               1
 max number of CS2 of shell pair           1830
 max number of PS2 of shell pair           9858
 mem total for path MDJ                  386872
 -------------------------------------------------------
 Smallest overlap matrix eigenvalue = 4.53E-04

 Scale SEOQF with 1.000000e-02/1.000000e-02/1.000000e-01

 Standard Electronic Orientation quadrupole field applied
 Nucleus-field energy     =    -0.0000000146 hartrees
 Guess from superposition of atomic densities
 Warning:  Energy on first SCF cycle will be non-variational
 A restricted hybrid HF-DFT SCF calculation will be
 performed using Pulay DIIS extrapolation
 Exchange:     0.2000 Hartree-Fock + 0.0800 Slater + 0.7200 B88
 Correlation:  0.1900 VWN1RPA + 0.8100 LYP
 Using SG-1 standard quadrature grid
 SCF converges when DIIS error is below 1.0E-05
 using 16 threads for integral computing 
 -------------------------------------------------------
 OpenMP BLAS3 based DFT computing Module                
 Release: version 1.0, May 2013, Q-Chem Inc. Pittsburgh 
 -------------------------------------------------------
 ---------------------------------------
  Cycle       Energy         DIIS Error
 ---------------------------------------
    1   -5680.3964312106      2.16E-02
    2   -5662.4734240843      2.18E-03
    3   -5660.6136436153      3.56E-03
    4   -5663.0814633644      1.30E-03
    5   -5663.4630245318      4.49E-04
    6   -5663.4862639884      3.27E-04
    7   -5663.5055304117      1.15E-04
    8   -5663.5077729694      4.67E-05
    9   -5663.5081614089      1.80E-05
   10   -5663.5082271863      6.37E-06 Convergence criterion met
 ---------------------------------------
 SCF time:  CPU 1333.52 s  wall 110.99 s
 SCF   energy in the final basis set = -5663.5082271863
 Total energy in the final basis set = -5663.5082271863
 
 --------------------------------------------------------------
 
                    Orbital Energies (a.u.)
 --------------------------------------------------------------
 
 Alpha MOs
 -- Occupied --
-88.985 -88.983 -88.931 -88.922 -88.916 -88.912 -88.912 -88.894
-14.387 -14.384 -14.379 -14.374 -14.349 -14.341 -14.339 -14.334
-14.329 -14.324 -10.262 -10.260 -10.258 -10.257 -10.253 -10.253
-10.248 -10.246 -10.244 -10.233 -10.232 -10.232 -10.231 -10.230
-10.230 -10.228 -10.226 -10.225 -10.224 -10.224 -10.223 -10.222
-10.222 -10.221 -10.220 -10.215 -10.215 -10.214 -10.212 -10.211
-10.209 -10.207 -10.201 -10.199 -10.198 -10.195 -10.194 -10.188
-10.187 -10.186 -10.182 -10.177 -10.177 -10.173 -10.173 -10.173
-10.172 -10.172 -10.170 -10.166  -8.040  -8.038  -7.994  -7.982
 -7.975  -7.972  -7.970  -7.954  -6.005  -6.003  -6.000  -5.998
 -5.997  -5.995  -5.957  -5.954  -5.951  -5.946  -5.943  -5.939
 -5.939  -5.936  -5.936  -5.934  -5.933  -5.932  -5.931  -5.928
 -5.927  -5.919  -5.915  -5.911  -1.040  -1.027  -0.969  -0.967
 -0.956  -0.948  -0.945  -0.927  -0.914  -0.911  -0.901  -0.898
 -0.844  -0.838  -0.835  -0.825  -0.815  -0.807  -0.806  -0.803
 -0.803  -0.802  -0.798  -0.790  -0.782  -0.776  -0.762  -0.762
 -0.749  -0.745  -0.738  -0.732  -0.721  -0.716  -0.708  -0.702
 -0.691  -0.685  -0.671  -0.669  -0.652  -0.651  -0.644  -0.640
 -0.632  -0.627  -0.623  -0.617  -0.612  -0.605  -0.601  -0.596
 -0.589  -0.587  -0.586  -0.579  -0.578  -0.577  -0.571  -0.557
 -0.545  -0.543  -0.539  -0.536  -0.525  -0.518  -0.515  -0.507
 -0.505  -0.501  -0.498  -0.493  -0.486  -0.478  -0.477  -0.473
 -0.469  -0.467  -0.462  -0.459  -0.457  -0.453  -0.449  -0.447
 -0.442  -0.441  -0.437  -0.436  -0.435  -0.431  -0.429  -0.426
 -0.424  -0.421  -0.421  -0.419  -0.416  -0.416  -0.414  -0.412
 -0.408  -0.404  -0.403  -0.400  -0.399  -0.396  -0.396  -0.394
 -0.393  -0.391  -0.390  -0.388  -0.387  -0.384  -0.382  -0.377
 -0.376  -0.373  -0.371  -0.369  -0.362  -0.361  -0.360  -0.355
 -0.351  -0.350  -0.347  -0.343  -0.342  -0.341  -0.340  -0.335
 -0.334  -0.330  -0.329  -0.327  -0.325  -0.324  -0.318  -0.317
 -0.311  -0.309  -0.307  -0.305  -0.303  -0.298  -0.296  -0.294
 -0.293  -0.292  -0.286  -0.284  -0.283  -0.282  -0.279  -0.278
 -0.275  -0.267  -0.265  -0.264  -0.253  -0.249  -0.245  -0.244
 -0.240  -0.232  -0.228  -0.224  -0.190  -0.187
 -- Virtual --
 -0.113  -0.103  -0.073  -0.062  -0.039  -0.034  -0.026  -0.020
 -0.019  -0.013  -0.011  -0.008  -0.004   0.000   0.005   0.011
  0.011   0.016   0.025   0.032   0.035   0.036   0.049   0.050
  0.052   0.058   0.062   0.075   0.078   0.084   0.090   0.094
  0.097   0.100   0.102   0.105   0.107   0.111   0.111   0.115
  0.117   0.121   0.122   0.123   0.124   0.125   0.128   0.129
  0.131   0.133   0.134   0.136   0.139   0.141   0.146   0.150
  0.153   0.157   0.158   0.159   0.161   0.162   0.165   0.168
  0.172   0.174   0.175   0.177   0.179   0.180   0.183   0.187
  0.189   0.192   0.193   0.196   0.197   0.198   0.198   0.202
  0.202   0.204   0.207   0.209   0.215   0.216   0.218   0.222
  0.224   0.227   0.228   0.230   0.231   0.234   0.238   0.240
  0.243   0.244   0.248   0.252   0.253   0.254   0.258   0.260
  0.263   0.267   0.269   0.272   0.274   0.276   0.279   0.280
  0.283   0.285   0.289   0.293   0.296   0.297   0.303   0.306
  0.310   0.317   0.319   0.320   0.324   0.326   0.330   0.332
  0.336   0.338   0.339   0.342   0.348   0.351   0.352   0.355
  0.358   0.361   0.364   0.368   0.372   0.373   0.379   0.380
  0.382   0.385   0.391   0.396   0.404   0.409   0.411   0.415
  0.421   0.422   0.424   0.432   0.434   0.443   0.445   0.451
  0.453   0.457   0.460   0.464   0.469   0.471   0.477   0.478
  0.480   0.487   0.491   0.493   0.496   0.499   0.502   0.503
  0.505   0.509   0.515   0.516   0.519   0.523   0.525   0.527
  0.529   0.531   0.533   0.536   0.539   0.540   0.541   0.543
  0.544   0.549   0.550   0.551   0.553   0.556   0.558   0.563
  0.564   0.564   0.566   0.567   0.568   0.570   0.570   0.575
  0.577   0.578   0.579   0.582   0.584   0.585   0.588   0.588
  0.591   0.596   0.597   0.598   0.602   0.605   0.608   0.610
  0.612   0.615   0.615   0.619   0.621   0.623   0.624   0.629
  0.631   0.632   0.633   0.635   0.638   0.640   0.640   0.643
  0.645   0.646   0.648   0.652   0.654   0.657   0.661   0.667
  0.669   0.673   0.674   0.679   0.681   0.684   0.685   0.688
  0.693   0.695   0.696   0.699   0.702   0.704   0.710   0.711
  0.715   0.715   0.719   0.723   0.724   0.728   0.732   0.735
  0.737   0.741   0.742   0.746   0.747   0.750   0.750   0.756
  0.758   0.761   0.766   0.770   0.773   0.775   0.776   0.782
  0.783   0.785   0.786   0.790   0.792   0.795   0.798   0.802
  0.803   0.805   0.810   0.811   0.813   0.815   0.816   0.819
  0.821   0.823   0.824   0.826   0.829   0.830   0.834   0.834
  0.835   0.837   0.838   0.841   0.842   0.843   0.847   0.848
  0.850   0.852   0.854   0.857   0.860   0.860   0.863   0.865
  0.868   0.870   0.872   0.875   0.877   0.881   0.883   0.885
  0.886   0.889   0.890   0.891   0.893   0.896   0.897   0.899
  0.903   0.906   0.907   0.911   0.913   0.917   0.920   0.923
  0.923   0.926   0.929   0.930   0.930   0.934   0.935   0.939
  0.939   0.943   0.944   0.948   0.951   0.952   0.954   0.955
  0.957   0.960   0.964   0.967   0.969   0.971   0.974   0.978
  0.981   0.983   0.987   0.988   0.992   0.993   0.997   0.999
  1.001   1.004   1.005   1.011   1.014   1.016   1.019   1.021
  1.024   1.027   1.030   1.033   1.035   1.039   1.040   1.041
  1.046   1.049   1.053   1.055   1.060   1.064   1.067   1.072
  1.074   1.076   1.079   1.081   1.086   1.091   1.093   1.097
  1.100   1.102   1.109   1.115   1.116   1.125   1.128   1.129
  1.133   1.140   1.145   1.153   1.156   1.161   1.166   1.171
  1.174   1.180   1.182   1.186   1.189   1.193   1.203   1.206
  1.212   1.213   1.217   1.218   1.226   1.234   1.240   1.249
  1.253   1.255   1.266   1.271   1.277   1.281   1.282   1.288
  1.291   1.299   1.300   1.304   1.305   1.307   1.312   1.315
  1.322   1.324   1.329   1.331   1.339   1.339   1.344   1.349
  1.354   1.355   1.363   1.365   1.366   1.372   1.378   1.382
  1.385   1.386   1.391   1.393   1.402   1.406   1.409   1.410
  1.417   1.419   1.423   1.428   1.432   1.438   1.441   1.445
  1.450   1.453   1.455   1.458   1.469   1.469   1.473   1.476
  1.479   1.487   1.497   1.508   1.509   1.510   1.515   1.519
  1.522   1.533   1.534   1.545   1.552   1.556   1.564   1.571
  1.574   1.587   1.590   1.597   1.599   1.606   1.612   1.619
  1.625   1.626   1.634   1.640   1.647   1.653   1.660   1.668
  1.670   1.674   1.682   1.686   1.689   1.691   1.693   1.698
  1.699   1.702   1.705   1.707   1.711   1.715   1.716   1.717
  1.719   1.723   1.731   1.735   1.737   1.740   1.743   1.747
  1.757   1.758   1.760   1.763   1.773   1.775   1.777   1.782
  1.794   1.797   1.802   1.807   1.815   1.818   1.825   1.830
  1.833   1.834   1.838   1.841   1.842   1.845   1.850   1.854
  1.858   1.861   1.866   1.869   1.872   1.876   1.876   1.879
  1.884   1.889   1.893   1.894   1.898   1.900   1.905   1.910
  1.915   1.919   1.921   1.925   1.930   1.933   1.935   1.940
  1.941   1.944   1.948   1.952   1.955   1.957   1.961   1.965
  1.968   1.978   1.979   1.984   1.989   1.996   2.001   2.006
  2.011   2.014   2.015   2.017   2.027   2.033   2.035   2.038
  2.042   2.044   2.052   2.062   2.066   2.070   2.073   2.079
  2.083   2.085   2.094   2.095   2.097   2.102   2.103   2.107
  2.113   2.115   2.122   2.125   2.128   2.131   2.135   2.138
  2.143   2.146   2.150   2.155   2.159   2.160   2.164   2.172
  2.176   2.181   2.183   2.186   2.189   2.191   2.194   2.200
  2.202   2.203   2.204   2.206   2.209   2.213   2.220   2.226
  2.230   2.235   2.238   2.240   2.246   2.249   2.250   2.256
  2.258   2.260   2.265   2.267   2.276   2.278   2.286   2.288
  2.295   2.301   2.302   2.304   2.306   2.314   2.315   2.316
  2.323   2.323   2.326   2.327   2.330   2.336   2.337   2.341
  2.343   2.350   2.356   2.358   2.359   2.372   2.376   2.378
  2.381   2.382   2.385   2.392   2.395   2.400   2.404   2.406
  2.411   2.412   2.414   2.417   2.418   2.419   2.426   2.432
  2.435   2.440   2.444   2.444   2.445   2.448   2.452   2.455
  2.459   2.464   2.464   2.468   2.471   2.474   2.477   2.483
  2.485   2.486   2.489   2.490   2.501   2.501   2.505   2.510
  2.516   2.519   2.526   2.528   2.529   2.540   2.544   2.547
  2.551   2.552   2.554   2.555   2.560   2.562   2.568   2.574
  2.576   2.579   2.580   2.595   2.600   2.604   2.607   2.611
  2.621   2.623   2.628   2.633   2.636   2.642   2.644   2.648
  2.654   2.655   2.664   2.667   2.671   2.672   2.674   2.680
  2.682   2.692   2.697   2.701   2.709   2.710   2.712   2.715
  2.718   2.723   2.726   2.729   2.737   2.738   2.745   2.749
  2.761   2.769   2.775   2.777   2.778   2.778   2.792   2.795
  2.803   2.804   2.813   2.819   2.821   2.827   2.839   2.840
  2.847   2.860   2.863   2.868   2.869   2.874   2.880   2.881
  2.884   2.888   2.896   2.899   2.903   2.907   2.912   2.913
  2.917   2.922   2.936   2.943   2.943   2.948   2.952   2.958
  2.969   2.970   2.975   2.983   2.989   3.000   3.014   3.029
  3.037   3.039   3.067   3.079   3.088   3.090   3.114   3.141
  3.150   3.152   3.191   3.201   3.202   3.223   3.226   3.244
  3.246   3.250   3.252   3.258   3.271   3.273   3.282   3.284
  3.295   3.298   3.300   3.302   3.311   3.317   3.335   3.341
  3.358   3.358   3.363   3.374   3.401   3.416   3.426   3.433
  3.451   3.468   3.472   3.478   3.488   3.497   3.525   3.539
  3.549   3.567   3.574   3.578   3.583   3.590   3.599   3.606
  3.641   3.657   3.726   3.751   3.861   3.907   3.920   3.932
  3.946   3.958   3.968   3.974   3.979   4.000   4.020   4.032
  4.067   4.087   4.089   4.107   4.115   4.127   4.131   4.139
  4.149   4.158   4.170   4.176   4.187   4.198   4.204   4.228
  4.236   4.241   4.250   4.251   4.260   4.272   4.295   4.296
  4.306   4.307   4.316   4.354   4.376   4.385   4.394   4.395
  4.431   4.438   4.462   4.469   4.471   4.490   4.495   4.504
  4.515   4.524   4.533   4.549   4.576   4.603   4.638   4.648
  4.690   4.694   4.725   4.744   4.755   4.781   4.800   4.820
 --------------------------------------------------------------
 
          Ground-State Mulliken Net Atomic Charges

     Atom                 Charge (a.u.)
  ----------------------------------------
      1 C                     0.267259
      2 C                    -0.114195
      3 N                    -0.490553
      4 C                    -0.077548
      5 C                     0.065675
      6 C                     0.044788
      7 C                     0.043752
      8 C                     0.039358
      9 C                     0.256983
     10 N                    -0.531175
     11 N                    -0.572296
     12 C                     0.191891
     13 C                     0.306844
     14 S                     0.625740
     15 N                    -0.555718
     16 C                    -0.224838
     17 S                     0.304492
     18 C                    -0.118351
     19 C                    -0.278401
     20 S                     0.257580
     21 C                     0.222364
     22 C                     0.084532
     23 C                    -0.295077
     24 C                    -0.056744
     25 N                    -0.435336
     26 S                     0.276073
     27 C                     0.122122
     28 C                    -0.306803
     29 C                    -0.259072
     30 H                     0.088341
     31 H                     0.098501
     32 H                     0.131858
     33 H                     0.110105
     34 H                     0.135158
     35 H                     0.114660
     36 H                     0.113287
     37 H                     0.119816
     38 H                     0.107130
     39 C                    -0.163651
     40 H                     0.118755
     41 H                     0.115187
     42 H                     0.105966
     43 C                    -0.174427
     44 H                     0.091819
     45 C                    -0.177202
     46 H                     0.088078
     47 H                     0.094076
     48 H                     0.092693
     49 C                    -0.171769
     50 H                     0.090897
     51 C                    -0.321398
     52 H                     0.090401
     53 H                     0.101081
     54 H                     0.097311
     55 H                     0.095937
     56 C                     0.280575
     57 C                    -0.117387
     58 N                    -0.471747
     59 C                    -0.102551
     60 C                     0.095412
     61 C                     0.021837
     62 C                     0.003228
     63 C                     0.074328
     64 C                     0.263807
     65 N                    -0.543986
     66 N                    -0.575363
     67 C                     0.230254
     68 C                     0.329783
     69 S                     0.608567
     70 N                    -0.562207
     71 C                    -0.229817
     72 S                     0.385390
     73 C                    -0.119447
     74 C                    -0.212156
     75 S                     0.284455
     76 C                     0.144827
     77 C                     0.044697
     78 C                    -0.317597
     79 C                    -0.074340
     80 N                    -0.430522
     81 S                     0.285692
     82 C                     0.127229
     83 C                    -0.320731
     84 C                    -0.229906
     85 H                     0.089562
     86 H                     0.090075
     87 H                     0.098801
     88 H                     0.124440
     89 H                     0.120729
     90 H                     0.113858
     91 H                     0.114935
     92 H                     0.131032
     93 H                     0.097838
     94 C                    -0.179027
     95 H                     0.118312
     96 H                     0.125639
     97 H                     0.082071
     98 C                    -0.187864
     99 H                     0.099498
    100 C                    -0.177534
    101 H                     0.081785
    102 H                     0.088435
    103 H                     0.091967
    104 C                    -0.181583
    105 H                     0.099058
    106 C                    -0.329795
    107 H                     0.111338
    108 H                     0.102320
    109 H                     0.107316
    110 H                     0.108516
  ----------------------------------------
  Sum of atomic charges =     0.000000

 -----------------------------------------------------------------
                    Cartesian Multipole Moments
 -----------------------------------------------------------------
    Charge (ESU x 10^10)
                 0.0000
    Dipole Moment (Debye)
         X      -3.5857      Y      -1.2212      Z       0.0309
       Tot       3.7880
    Quadrupole Moments (Debye-Ang)
        XX    -389.8366     XY       5.1310     YY    -417.9128
        XZ      -2.0182     YZ     -23.2683     ZZ    -448.3761
    Octopole Moments (Debye-Ang^2)
       XXX    -761.3893    XXY      69.7422    XYY      24.1796
       YYY     -14.7495    XXZ     -55.8908    XYZ       5.2785
       YYZ     -22.2540    XZZ       2.4357    YZZ       1.1701
       ZZZ       3.9549
    Hexadecapole Moments (Debye-Ang^3)
      XXXX  -86335.8220   XXXY    -260.4203   XXYY  -17249.3578
      XYYY     -62.9212   YYYY  -18878.3489   XXXZ       4.5918
      XXYZ    -722.1585   XYYZ     194.4263   YYYZ    -539.6654
      XXZZ  -16286.6318   XYZZ     -10.0302   YYZZ   -4175.2840
      XZZZ     -59.9554   YZZZ    -151.7119   ZZZZ   -5507.8669
 -----------------------------------------------------------------
Archival summary:
1\1\mn246\SP\ProcedureUnspecified\6-31G**\8105042\afmv_a\FriOct1203:33:572018FriOct1203:33:572018\0\\#,ProcedureUnspecified,6-31G**,\\0,1\S\C,1,1.75228\C,2,1.34766,1,109.968\C,3,1.40155,2,114.301,1,-8.64171,0\C,4,1.32418,3,113.324,2,8.83117,0\C,5,1.44265,4,124.504,3,-179.002,0\N,6,1.30342,5,117.542,4,10.815,0\C,7,1.36752,6,109.713,5,-170.562,0\H,8,1.0824,7,118.251,6,-176.164,0\C,8,1.36389,7,112.418,6,-3.71024,0\H,10,1.08253,8,124.079,7,-176.4,0\C,4,1.46205,3,106.476,2,-175.229,0\H,12,1.08352,4,118.326,3,171.324,0\C,12,1.37169,4,117.746,3,-4.74803,0\H,14,1.08142,12,131.261,4,179.573,0\C,2,1.52918,1,124.091,3,169.617,0\N,16,1.32942,2,118.718,1,175.026,0\C,17,1.34809,16,120.697,2,-178.688,0\H,18,1.08853,17,112.211,16,176.536,0\C,18,1.39258,17,123.147,16,-6.82036,0\C,16,1.40368,2,121.824,1,-10.916,0\N,21,1.3605,16,126.366,2,4.37229,0\C,21,1.37333,16,121.245,2,-170.144,0\N,23,1.34748,21,116.129,16,173.207,0\C,20,1.49668,18,118.949,17,-178.042,0\C,25,1.39865,20,121.131,18,-161.69,0\H,26,1.08905,25,124.954,20,-11.4675,0\N,26,1.34009,25,124.662,20,179.295,0\C,28,1.3836,26,116.853,25,0.944403,0\C,29,1.38503,28,122.611,26,-8.29665,0\H,30,1.08578,29,116.157,28,-172.539,0\C,30,1.4004,29,118.954,28,11.1335,0\H,32,1.08581,30,121.706,29,172.498,0\C,29,1.54688,28,119.706,26,175.606,0\H,34,1.09672,29,103.42,28,105.375,0\H,34,1.09742,29,109.173,28,-138.118,0\S,22,1.58094,21,107.471,16,-171.635,0\C,34,1.60154,29,115.173,28,-13.7578,0\H,38,1.09648,34,116.351,29,-37.8972,0\H,38,1.09665,34,101.805,29,80.0977,0\C,38,1.51499,34,111.109,29,-168.51,0\H,41,1.09647,38,113.537,34,77.7727,0\H,41,1.09792,38,110.992,34,-40.9119,0\C,41,1.52056,38,106.441,34,-163.742,0\H,44,1.09665,41,116.686,38,57.0064,0\H,44,1.09719,41,113.581,38,-60.6828,0\C,44,1.55932,41,109.093,38,-178.787,0\H,47,1.09643,44,111.085,41,50.7541,0\H,47,1.09797,44,106.893,41,-61.4388,0\C,47,1.50547,44,112.227,41,173.012,0\H,50,1.09661,47,108.333,44,177.526,0\H,50,1.09681,47,116.197,44,-56.6172,0\H,50,1.09776,47,116.829,44,56.6954,0\S,10,1.73941,8,115.963,7,3.8071,0\S,3,1.74565,2,130.666,1,172.433,0\H,46,3.23685,44,155.283,41,-6.63676,0\C,56,1.09701,46,110.291,44,131.395,0\H,57,1.09714,56,111.734,46,102.729,0\H,57,1.09727,56,107.705,46,-14.7659,0\C,57,1.59778,56,110.474,46,-134.445,0\H,60,1.09639,57,119.957,56,59.2847,0\H,60,1.09757,57,100.961,56,-55.3603,0\C,60,1.57147,57,109.147,56,-175.611,0\H,63,1.09709,60,117.391,57,46.7155,0\H,63,1.0973,60,106.791,57,-62.7536,0\C,63,1.57533,60,117.473,57,178.387,0\H,66,1.09669,63,111.598,60,65.1156,0\H,66,1.0974,63,112.969,60,-172.901,0\C,66,1.54482,63,111.726,60,-49.2424,0\H,69,1.09691,66,107.79,63,-53.1671,0\H,69,1.09715,66,113.881,63,59.4755,0\C,69,1.53443,66,114.314,63,-168.439,0\H,72,1.09668,69,102.964,66,170.634,0\H,72,1.09767,69,112.292,66,50.7661,0\C,72,1.50112,69,106.186,66,-72.8817,0\N,75,1.34824,72,119.458,69,-67.5751,0\C,76,1.31514,75,117.68,72,-175.495,0\H,77,1.08897,76,116.234,75,172.189,0\C,75,1.40353,72,120.174,69,109.391,0\H,79,1.08607,75,120.167,72,-4.90292,0\C,79,1.39032,75,119.134,72,169.541,0\H,81,1.08621,79,124.661,75,-163.588,0\C,81,1.41771,79,121.888,75,9.22138,0\C,83,1.45208,81,121.822,79,-165.507,0\C,84,1.41696,83,119.597,81,27.5787,0\H,85,1.08893,84,123.297,83,2.28642,0\N,85,1.38581,84,118.384,83,177.058,0\C,87,1.34554,85,120.135,84,3.47032,0\C,84,1.42645,83,117.587,81,-143.272,0\N,89,1.35025,84,125.639,83,-3.3852,0\C,89,1.39343,84,116.562,83,-177.161,0\N,91,1.34278,89,112.861,84,164.721,0\C,88,1.46373,87,114.63,85,-178.803,0\C,93,1.39517,88,127.754,87,23.1782,0\C,94,1.40685,93,115.159,88,173.717,0\C,95,1.36709,94,112.988,93,178.547,0\H,96,1.08385,95,126.737,94,-179.404,0\C,96,1.37491,95,109.345,94,2.19185,0\H,98,1.08206,96,126.924,95,170.122,0\C,95,1.38202,94,113.651,93,0.795286,0\C,100,1.39494,95,123.419,94,-174.478,0\N,101,1.35345,100,115.382,95,156.114,0\C,102,1.35702,101,109.607,100,179.48,0\H,103,1.08174,102,120.965,101,179.77,0\C,103,1.4106,102,113.898,101,-0.816853,0\H,105,1.08122,103,130.765,102,-171.204,0\S,90,1.65743,89,103.551,84,-164.542,0\S,101,1.70936,100,127.559,95,-31.0092,0\S,94,1.7162,93,129.816,88,-19.1693,0\S,93,1.76711,88,121.85,87,-174.524,0\\\@

 Total job time:  114.29s(wall), 1342.97s(cpu) 
 Fri Oct 12 03:33:57 2018

        *************************************************************
        *                                                           *
        *  Thank you very much for using Q-Chem.  Have a nice day.  *
        *                                                           *
        *************************************************************


