
Running Job 1 of 1 ./9/98.qcin
qchem ./9/98.qcin_2354.0 /tmpu/cab_g/afmv_a/scratch_qchem/qchem2354/ 1
/tmpu/appuserlic/qchem4.4/serial-multicore/exe/qcprog.exe_s ./9/98.qcin_2354.0 /tmpu/cab_g/afmv_a/scratch_qchem/qchem2354/
Check license passed

                  Welcome to Q-Chem
     A Quantum Leap Into The Future Of Chemistry


 Q-Chem 4.4, Q-Chem, Inc., Pleasanton, CA (2016)

 Y. Shao,  Z. Gan,  E. Epifanovsky,  A. T. B. Gilbert,  M. Wormit,  
 J. Kussmann,  A. W. Lange,  A. Behn,  J. Deng,  X. Feng,  D. Ghosh,  
 M. Goldey,  P. R. Horn,  L. D. Jacobson,  I. Kaliman,  F. Rob,  
 R. Z. Khaliullin,  T. Kus,  A. Landau,  J. Liu,  E. I. Proynov,  Y. M. Rhee,  
 R. M. Richard,  M. A. Rohrdanz,  R. P. Steele,  E. J. Sundstrom,  
 H. L. Woodcock III,  P. M. Zimmerman,  D. Zuev,  B. Albrecht,  E. Alguire,  
 B. Austin,  S. A. Baeppler,  G. J. O. Beran,  Y. A. Bernard,  E. Berquist,  
 K. Brandhorst,  K. B. Bravaya,  S. T. Brown,  D. Casanova,  C.-M. Chang,  
 Y. Chen,  S. H. Chien,  K. D. Closser,  M. P. Coons,  D. L. Crittenden,  
 S. Dasgupta,  M. Diedenhofen,  R. A. DiStasio Jr.,  H. Do,  A. D. Dutoi,  
 R. G. Edgar,  P.-T. Fang,  S. Fatehi,  Q. Feng,  L. Fusti-Molnar,  
 A. Ghysels,  A. Golubeva-Zadorozhnaya,  J. Gomes,  A. Gunina,  
 M. W. D. Hanson-Heine,  P. H. P. Harbach,  A. W. Hauser,  J. E. Herr,  
 E. G. Hohenstein,  Z. C. Holden,  K. Hui,  T.-C. Jagau,  H. Ji,  B. Kaduk,  
 K. Khistyaev,  Jaehoon Kim,  Jihan Kim,  R. A. King,  P. Klunzinger,  
 K. Koh,  D. Kosenkov,  T. Kowalczyk,  C. M. Krauter,  A. Kunitsa,  
 K. U. Lao,  A. Laurent,  K. V. Lawler,  J. Lee,  D. Lefrancois,  S. Lehtola,  
 S. V. Levchenko,  C. Y. Lin,  Y.-S. Lin,  F. Liu,  E. Livshits,  
 R. C. Lochan,  A. Luenser,  P. Manohar,  S. F. Manzer,  S.-P. Mao,  Y. Mao,  
 N. Mardirossian,  A. V. Marenich,  L. A. Martinez-Martinez,  S. A. Maurer,  
 N. J. Mayhall,  J.-M. Mewes,  A. F. Morrison,  K. Nanda,  T. S. Nguyen-Beck,  
 C. M. Oana,  R. Olivares-Amaya,  D. P. O'Neill,  J. A. Parkhill,  
 T. M. Perrine,  R. Peverati,  P. A. Pieniazek,  F. Plasser,  A. Prociuk,  
 D. R. Rehn,  E. Rosta,  N. J. Russ,  N. Sergueev,  S. M. Sharada,  
 S. Sharma,  D. W. Small,  A. Sodt,  T. Stauch,  T. Stein,  D. Stuck,  
 Y.-C. Su,  A. J. W. Thom,  T. Tsuchimochi,  L. Vogt,  O. Vydrov,  T. Wang,  
 M. A. Watson,  J. Wenzel,  A. White,  C. F. Williams,  V. Vanovschi,  
 K. Yao,  S. Yeganeh,  S. R. Yost,  Z.-Q. You,  I. Y. Zhang,  X. Zhang,  
 Y. Zhao,  B. R. Brooks,  G. K. L. Chan,  D. M. Chipman,  C. J. Cramer,  
 W. A. Goddard III,  M. S. Gordon,  W. J. Hehre,  A. Klamt,  
 H. F. Schaefer III,  M. W. Schmidt,  C. D. Sherrill,  D. G. Truhlar,  
 A. Warshel,  X. Xu,  A. Aspuru-Guzik,  R. Baer,  A. T. Bell,  N. A. Besley,  
 J.-D. Chai,  A. Dreuw,  B. D. Dunietz,  T. R. Furlani,  S. R. Gwaltney,  
 C.-P. Hsu,  Y. Jung,  J. Kong,  D. S. Lambrecht,  W. Liang,  C. Ochsenfeld,  
 V. A. Rassolov,  L. V. Slipchenko,  J. E. Subotnik,  T. Van Voorhis,  
 J. M. Herbert,  A. I. Krylov,  P. M. W. Gill,  M. Head-Gordon

 Contributors to earlier versions of Q-Chem not listed above: 
 R. D. Adamson,  J. Baker,  E. F. C. Byrd,  A. K. Chakraborty,  C.-L. Cheng,  
 H. Dachsel,  R. J. Doerksen,  G. Hawkins,  A. Heyden,  S. Hirata,  
 G. Kedziora,  F. J. Keil,  C. Kelley,  P. P. Korambath,  W. Kurlancheek,  
 A. M. Lee,  M. S. Lee,  D. Liotard,  I. Lotan,  P. E. Maslen,  N. Nair,  
 D. Neuhauser,  R. Olson,  B. Peters,  J. Ritchie,  N. E. Schultz,  
 N. Shenvi,  A. C. Simmonett,  K. S. Thanthiriwatte,  Q. Wu,  W. Zhang

 Please cite Q-Chem as follows:
 Y. Shao et al., Mol. Phys. 113, 184-215 (2015)
 DOI: 10.1080/00268976.2014.952696

 Q-Chem 4.4.2 for Intel X86 Linux

 Parts of Q-Chem use Armadillo 5.200.1 (Boston Tea Smuggler).
 http://arma.sourceforge.net/

 Q-Chem begins on Fri Oct 12 03:50:16 2018  

Host: 
0

     Scratch files written to /tmpu/cab_g/afmv_a/scratch_qchem/qchem2354//
 Dec716 11556_ 22328  22283 4050   
Processing $rem in /tmpu/appuserlic/qchem4.4/serial-multicore/config/preferences.
 MEM_TOTAL  2000 
FILE_GEOM_ORG=        593

Checking the input file for inconsistencies... 	...done.

--------------------------------------------------------------
User input:
--------------------------------------------------------------
$comment
SP
$end

$rem
MEM_STATIC 5000
MEM_TOTAL 20000
JOBTYPE SP
EXCHANGE B3LYP
BASIS 6-31g(d,p)
$end

$molecule
0 1
C         -22.036000     -2.568000      8.228000
C         -22.747000     -3.378000      7.361000
N         -22.141000     -2.729000      9.532000
C         -23.515000     -4.418000      7.891000
C         -22.856000     -3.785000     10.022000
C         -23.649000     -4.649000      9.228000
C         -24.436000     -5.776000      9.769000
C         -25.128000     -5.532000     10.891000
C         -24.520000     -7.082000      9.258000
N         -25.898000     -6.434000     11.523000
N         -23.812000     -7.585000      8.263000
C         -25.265000     -8.025000      9.889000
C         -26.116000     -7.623000     10.954000
S         -24.323000     -9.121000      8.029000
N         -25.333000     -9.223000      9.350000
C         -27.231000     -8.384000     11.546000
S         -27.914000     -7.905000     13.114000
C         -28.035000     -9.338000     10.921000
C         -29.314000     -8.926000     12.838000
S         -27.935000    -10.203000      9.414000
C         -29.164000     -9.604000     11.637000
C         -30.414000     -9.167000     13.780000
C         -29.612000    -10.848000      9.689000
C         -30.090000    -10.414000     10.918000
N         -30.556000     -8.361000     14.842000
S         -31.495000    -10.600000     13.837000
C         -31.395000     -8.925000     15.794000
C         -31.927000    -10.138000     15.481000
C         -21.193000     -1.405000      7.709000
H         -22.698000     -3.166000      6.297000
H         -24.007000     -5.064000      7.169000
H         -22.801000     -3.907000     11.103000
H         -25.023000     -4.598000     11.441000
H         -30.043000    -11.494000      8.936000
H         -31.072000    -10.695000     11.281000
H         -31.659000     -8.237000     16.587000
H         -32.718000    -10.715000     15.941000
H         -21.448000     -1.184000      6.665000
C         -19.724000     -1.918000      7.742000
H         -21.409000     -0.491000      8.275000
H         -19.653000     -2.868000      7.196000
H         -19.467000     -2.009000      8.804000
C         -18.768000     -0.967000      7.054000
H         -19.129000      0.059000      7.192000
C         -18.578000     -1.204000      5.480000
H         -17.774000     -0.956000      7.518000
H         -19.331000     -0.690000      4.869000
H         -18.609000     -2.277000      5.253000
C         -17.256000     -0.592000      5.030000
H         -17.137000      0.426000      5.419000
C         -16.849000     -0.713000      3.558000
H         -16.402000     -0.959000      5.612000
H         -15.876000     -0.226000      3.414000
H         -17.552000     -0.333000      2.807000
H         -16.525000     -1.713000      3.244000
C         -21.589000     -3.196000      2.155000
C         -22.912000     -3.369000      1.640000
N         -21.049000     -4.060000      3.029000
C         -23.615000     -4.526000      1.981000
C         -21.855000     -5.076000      3.456000
C         -23.148000     -5.431000      3.010000
C         -23.877000     -6.591000      3.553000
C         -25.312000     -6.539000      3.884000
C         -23.225000     -7.820000      4.059000
N         -26.033000     -7.626000      4.302000
N         -21.896000     -8.085000      4.031000
C         -23.952000     -8.797000      4.620000
C         -25.373000     -8.754000      4.594000
S         -21.594000     -9.549000      4.834000
N         -23.191000     -9.875000      5.099000
C         -26.325000     -9.875000      4.905000
S         -27.951000     -9.741000      5.687000
C         -26.082000    -11.128000      4.488000
C         -28.192000    -11.405000      5.498000
S         -25.051000    -11.761000      3.208000
C         -27.144000    -11.989000      4.786000
C         -29.507000    -11.981000      5.661000
C         -25.978000    -13.228000      3.173000
C         -27.014000    -13.244000      4.070000
N         -29.531000    -13.277000      5.849000
S         -31.006000    -11.080000      5.753000
C         -30.810000    -13.590000      6.066000
C         -31.730000    -12.572000      6.119000
C         -20.800000     -2.054000      1.696000
H         -23.262000     -2.555000      1.011000
H         -24.563000     -4.813000      1.535000
H         -21.274000     -5.770000      4.062000
H         -25.907000     -5.627000      3.880000
H         -25.736000    -13.973000      2.426000
H         -27.735000    -14.046000      4.179000
H         -31.099000    -14.601000      6.320000
H         -32.794000    -12.582000      6.316000
H         -19.769000     -2.264000      2.007000
C         -21.286000     -0.585000      2.162000
H         -20.739000     -2.101000      0.602000
H         -21.103000     -0.523000      3.242000
H         -22.344000     -0.467000      1.899000
C         -20.538000      0.549000      1.407000
H         -20.576000      1.392000      2.108000
C         -21.041000      0.885000     -0.049000
H         -19.493000      0.215000      1.372000
H         -22.057000      1.289000      0.041000
H         -21.076000      0.004000     -0.702000
C         -20.180000      1.997000     -0.749000
H         -20.286000      2.957000     -0.229000
C         -20.566000      2.250000     -2.202000
H         -19.115000      1.748000     -0.660000
H         -19.781000      2.902000     -2.605000
H         -21.544000      2.747000     -2.221000
H         -20.538000      1.316000     -2.776000
$end

--------------------------------------------------------------
 ----------------------------------------------------------------
             Standard Nuclear Orientation (Angstroms)
    I     Atom           X                Y                Z
 ----------------------------------------------------------------
    1      C      -3.9198727495    -4.0438733786     0.1713033735
    2      C      -3.4272707579    -2.7907082530    -0.1452885500
    3      N      -3.1012468822    -5.0156274528     0.5218853306
    4      C      -2.0568449660    -2.5540163188    -0.0102549352
    5      C      -1.7738202782    -4.7439969396     0.6968609724
    6      C      -1.1612748427    -3.5105677190     0.3663742899
    7      C       0.2791978877    -3.2324572296     0.5392090910
    8      C       1.1211603348    -4.2020510715     0.1541493300
    9      C       0.8667063662    -2.0797187450     1.0867862763
   10      N       2.4603535178    -4.1253045775     0.2353872169
   11      N       0.2361026104    -1.0738345167     1.6654345481
   12      C       2.2149238419    -1.9827439208     1.2106431356
   13      C       3.0300024641    -2.9720699282     0.5967124467
   14      S       1.3651989816     0.0328301360     2.0844903094
   15      N       2.7129214616    -0.8686251121     1.7016488899
   16      C       4.4755384739    -2.8956549788     0.3185103620
   17      S       5.3937402591    -4.3635366794    -0.0774477100
   18      C       5.2345565266    -1.7503391868     0.0749937668
   19      C       6.7355001757    -3.3917613489    -0.6553318100
   20      S       4.9398626512    -0.0443359020     0.2538297587
   21      C       6.4505249456    -2.0475162661    -0.4645982898
   22      C       8.0322060568    -3.8926551572    -1.1276709369
   23      C       6.5009124155     0.3017547332    -0.6106492204
   24      C       7.1497917519    -0.8885031573    -0.9098527645
   25      N       8.1645769726    -5.1940893564    -1.4215943380
   26      S       9.5956376631    -3.0089547260    -1.1350303012
   27      C       9.5019994515    -5.5586220207    -1.5036799613
   28      C      10.4081062002    -4.5624724830    -1.3061485499
   29      C      -5.4055606134    -4.3672115422     0.0272096438
   30      H      -4.1216456335    -2.0375793455    -0.5059565147
   31      H      -1.7254861070    -1.5391113445    -0.2123271986
   32      H      -1.1894770589    -5.5742428790     1.0914552985
   33      H       0.7662640904    -5.1842745288    -0.1543417327
   34      H       6.7791678095     1.3343188486    -0.7733491999
   35      H       8.1068309471    -0.9055943391    -1.4186138777
   36      H       9.6456378851    -6.5575690272    -1.8952944127
   37      H      11.4762879534    -4.5207349724    -1.4718462335
   38      H      -5.9084442195    -3.5962673866    -0.5699127787
   39      C      -5.9805354857    -4.3009140317     1.4719336785
   40      H      -5.5429177213    -5.3101205298    -0.5154354207
   41      H      -5.7221098446    -3.3358819889     1.9275501230
   42      H      -5.5487632309    -5.1587076835     2.0010241915
   43      C      -7.4920159015    -4.3825991410     1.4928022040
   44      H      -7.8236565529    -5.0160380767     0.6616520412
   45      C      -8.2571077271    -2.9796988456     1.3653256981
   46      H      -7.8762444684    -4.8992645151     2.3809904158
   47      H      -8.4138260850    -2.6628767604     0.3262929158
   48      H      -7.7007306893    -2.1963763622     1.8951081806
   49      C      -9.6679531909    -3.1175686855     1.9267836080
   50      H     -10.1634964844    -4.0153441012     1.5391727887
   51      C     -10.5855531503    -1.8907510775     1.9284781373
   52      H      -9.6771869078    -3.5046926777     2.9528336813
   53      H     -11.5519272907    -2.1666197028     2.3696714308
   54      H     -10.7621024378    -1.3910873289     0.9683862212
   55      H     -10.3355358412    -1.1219039062     2.6700557612
   56      C      -6.8698968754     1.2478007148    -0.7067996647
   57      C      -6.2107042312     1.9383937223    -1.7717078090
   58      N      -6.2373289698     0.9350445611     0.4351344110
   59      C      -4.9043159484     2.3869702646    -1.5685631800
   60      C      -4.9099560335     1.2482430487     0.5000096413
   61      C      -4.1239606905     1.9785908307    -0.4195519054
   62      C      -2.6980991179     2.2657804969    -0.1822106503
   63      C      -1.6808856214     2.1497257741    -1.2420681898
   64      C      -2.0979587763     2.4431959025     1.1594064129
   65      N      -0.3671838600     2.4985550621    -1.0728351852
   66      N      -2.7681630020     2.4409202552     2.3375707127
   67      C      -0.7753923127     2.6142786713     1.2984302798
   68      C       0.0589998230     2.7954684718     0.1614491805
   69      S      -1.6606698295     2.5486028132     3.6186532001
   70      N      -0.3475445665     2.7165034071     2.6315253287
   71      C       1.4815062494     3.2810410772     0.1424567615
   72      S       2.7933376092     2.7728678680    -0.9951787130
   73      C       1.8831115264     4.2848591785     0.9387038469
   74      C       3.8568213624     3.8782544524    -0.2811613424
   75      S       0.9894362668     5.5555675202     1.7685802477
   76      C       3.2088172046     4.6518193452     0.6821620550
   77      C       5.0970543503     4.2317680315    -0.9326368103
   78      C       2.4325353221     6.5139355904     1.8764633271
   79      C       3.5306180020     5.9176402681     1.3136069362
   80      N       5.9934140706     4.7954257747    -0.1616859686
   81      S       5.5177760261     3.8521878081    -2.5897964663
   82      C       7.0789894481     4.9546239998    -0.9213444610
   83      C       7.0530827490     4.4678110279    -2.2050402868
   84      C      -8.2794367827     0.8936027827    -0.8652517853
   85      H      -6.8064069445     2.0523919227    -2.6733062161
   86      H      -4.3717089235     3.0352266826    -2.2585504071
   87      H      -4.5407102815     1.0571167623     1.5067674658
   88      H      -1.8709136989     1.7264114831    -2.2271972883
   89      H       2.3601865787     7.5092959914     2.2955353154
   90      H       4.5157350463     6.3636855368     1.2393504404
   91      H       7.9984179491     5.3408079945    -0.5022130331
   92      H       7.8124223633     4.4484552848    -2.9757761076
   93      H      -8.6292172758     0.6201931527     0.1380840413
   94      C      -8.6381548072    -0.2384363276    -1.9612088245
   95      H      -8.8390127026     1.8128698112    -1.0764126723
   96      H      -8.2447378542    -1.1859613850    -1.5724256373
   97      H      -8.1917507356     0.0497057952    -2.9204556759
   98      C     -10.1666093388    -0.3390887114    -2.2242313378
   99      H     -10.3023354529    -1.3769992113    -2.5525820895
  100      C     -10.7942239377     0.7397906696    -3.1875382446
  101      H     -10.6238421608    -0.2608321974    -1.2294348437
  102      H     -10.3696445687     0.5738401242    -4.1854183856
  103      H     -10.5663857834     1.7685647101    -2.8817462419
  104      C     -12.3511065300     0.5913828620    -3.3357162331
  105      H     -12.6071735168    -0.3532316172    -3.8310637718
  106      C     -12.9987384281     1.6984996708    -4.1597789106
  107      H     -12.8098404618     0.5179874008    -2.3415717335
  108      H     -14.0800862482     1.5691803928    -4.0267322409
  109      H     -12.7088539372     1.5660937485    -5.2096787409
  110      H     -12.7376860192     2.6833177755    -3.7540684962
 ----------------------------------------------------------------
 Molecular Point Group                 C1    NOp =  1
 Largest Abelian Subgroup              C1    NOp =  1
 Nuclear Repulsion Energy = 11949.4467069565 hartrees
 There are      270 alpha and      270 beta electrons
 Requested basis set is 6-31G(d,p)
 There are 406 shells and 1262 basis functions

 Total QAlloc Memory Limit  20000 MB
 Mega-Array Size      4888 MB
 MEM_STATIC part      5000 MB
 A cutoff of  1.0D-08 yielded  14511 shell pairs
 There are    149694 function pairs
 
 -------------------------------------------------------
 OpenMP Integral Computing Module                       
 Release: version 1.0, May 2013, Q-Chem Inc. Pittsburgh 
 -------------------------------------------------------
 Integral Job Info:
 Integral job number is                      11
 Integral operator is                         1
 short-range coefficients                     0
 long-range coefficients              100000000
 Omega coefficients                           0
 if combine SR and LR in K                    0
 Integral screening is                        0
 Integral computing path is                   2
 max size of driver memory is            800000
 size of driver memory is                593474
 size of scratch memory is             15166112
 max col of scratch BK array               1296
 max len of scratch array in speh3          155
 max len of scratch index in speh4           18
 max int batch size is                      520
 min int batch size is                       52
 fixed nKL is                                52
 max L of basis functions is                  2
 order of int derivative is                   0
 number of shells is                        406
 number of basis is                        1262
 number of cartesian basis is              1262
 number of contracted shell pairs         14511
 number of primitive shell pairs          45225
 maxK2 (contraction) of shell pair           36
 max number of K2 of shell pair               1
 max number of CS2 of shell pair           1499
 max number of PS2 of shell pair           8250
 mem total for path MDJ                  318024
 -------------------------------------------------------
 Smallest overlap matrix eigenvalue = 4.22E-04

 Scale SEOQF with 1.000000e-02/1.000000e-02/1.000000e-01

 Standard Electronic Orientation quadrupole field applied
 Nucleus-field energy     =    -0.0000000416 hartrees
 Guess from superposition of atomic densities
 Warning:  Energy on first SCF cycle will be non-variational
 A restricted hybrid HF-DFT SCF calculation will be
 performed using Pulay DIIS extrapolation
 Exchange:     0.2000 Hartree-Fock + 0.0800 Slater + 0.7200 B88
 Correlation:  0.1900 VWN1RPA + 0.8100 LYP
 Using SG-1 standard quadrature grid
 SCF converges when DIIS error is below 1.0E-05
 using 16 threads for integral computing 
 -------------------------------------------------------
 OpenMP BLAS3 based DFT computing Module                
 Release: version 1.0, May 2013, Q-Chem Inc. Pittsburgh 
 -------------------------------------------------------
 ---------------------------------------
  Cycle       Energy         DIIS Error
 ---------------------------------------
    1   -5680.2587804675      2.15E-02
    2   -5662.4581878707      2.17E-03
    3   -5660.8754694481      3.44E-03
    4   -5663.3303534120      8.65E-04
    5   -5663.4521172032      4.37E-04
    6   -5663.4754384092      2.76E-04
    7   -5663.4894205851      8.00E-05
    8   -5663.4905477467      3.35E-05
    9   -5663.4907545134      1.36E-05
   10   -5663.4907903576      4.37E-06 Convergence criterion met
 ---------------------------------------
 SCF time:  CPU 1140.81 s  wall 93.30 s
 SCF   energy in the final basis set = -5663.4907903576
 Total energy in the final basis set = -5663.4907903576
 
 --------------------------------------------------------------
 
                    Orbital Energies (a.u.)
 --------------------------------------------------------------
 
 Alpha MOs
 -- Occupied --
-89.001 -88.980 -88.935 -88.931 -88.923 -88.922 -88.913 -88.906
-14.394 -14.384 -14.381 -14.374 -14.359 -14.348 -14.339 -14.335
-14.331 -14.320 -10.271 -10.271 -10.271 -10.264 -10.262 -10.255
-10.254 -10.248 -10.246 -10.244 -10.244 -10.240 -10.238 -10.238
-10.230 -10.230 -10.229 -10.229 -10.229 -10.229 -10.228 -10.227
-10.226 -10.223 -10.223 -10.223 -10.223 -10.220 -10.216 -10.213
-10.208 -10.204 -10.204 -10.204 -10.203 -10.201 -10.195 -10.195
-10.189 -10.187 -10.186 -10.185 -10.182 -10.180 -10.176 -10.176
-10.174 -10.174 -10.173 -10.170  -8.055  -8.035  -7.997  -7.990
 -7.983  -7.981  -7.974  -7.965  -6.020  -6.015  -6.013  -6.000
 -5.995  -5.992  -5.961  -5.957  -5.955  -5.954  -5.951  -5.947
 -5.947  -5.945  -5.944  -5.941  -5.940  -5.939  -5.937  -5.935
 -5.930  -5.930  -5.926  -5.921  -1.042  -1.026  -0.993  -0.960
 -0.958  -0.954  -0.936  -0.935  -0.921  -0.914  -0.905  -0.887
 -0.855  -0.841  -0.832  -0.831  -0.828  -0.816  -0.805  -0.804
 -0.798  -0.798  -0.796  -0.792  -0.785  -0.777  -0.767  -0.767
 -0.752  -0.744  -0.743  -0.738  -0.737  -0.725  -0.715  -0.706
 -0.693  -0.690  -0.679  -0.671  -0.664  -0.654  -0.643  -0.643
 -0.639  -0.638  -0.629  -0.620  -0.612  -0.606  -0.597  -0.595
 -0.594  -0.591  -0.588  -0.582  -0.581  -0.576  -0.572  -0.566
 -0.556  -0.548  -0.544  -0.537  -0.531  -0.519  -0.518  -0.513
 -0.507  -0.506  -0.504  -0.500  -0.487  -0.486  -0.479  -0.475
 -0.474  -0.471  -0.469  -0.464  -0.462  -0.453  -0.451  -0.449
 -0.448  -0.444  -0.442  -0.442  -0.439  -0.437  -0.435  -0.431
 -0.427  -0.423  -0.422  -0.420  -0.418  -0.416  -0.414  -0.414
 -0.410  -0.410  -0.407  -0.406  -0.405  -0.403  -0.397  -0.394
 -0.391  -0.390  -0.389  -0.388  -0.387  -0.387  -0.382  -0.381
 -0.379  -0.377  -0.372  -0.370  -0.366  -0.365  -0.361  -0.360
 -0.357  -0.353  -0.353  -0.350  -0.347  -0.345  -0.344  -0.341
 -0.337  -0.333  -0.332  -0.332  -0.329  -0.325  -0.324  -0.322
 -0.312  -0.311  -0.310  -0.307  -0.306  -0.304  -0.302  -0.301
 -0.299  -0.298  -0.293  -0.292  -0.291  -0.286  -0.285  -0.283
 -0.277  -0.270  -0.267  -0.257  -0.257  -0.254  -0.252  -0.248
 -0.244  -0.243  -0.232  -0.231  -0.198  -0.191
 -- Virtual --
 -0.123  -0.107  -0.079  -0.072  -0.050  -0.035  -0.031  -0.027
 -0.026  -0.018  -0.015  -0.013  -0.007  -0.007  -0.003   0.002
  0.009   0.010   0.013   0.019   0.022   0.034   0.038   0.041
  0.045   0.046   0.054   0.064   0.069   0.076   0.083   0.087
  0.090   0.091   0.095   0.098   0.101   0.106   0.108   0.108
  0.109   0.111   0.113   0.115   0.120   0.122   0.122   0.123
  0.127   0.127   0.130   0.134   0.134   0.139   0.140   0.143
  0.146   0.149   0.152   0.156   0.156   0.159   0.162   0.164
  0.166   0.169   0.171   0.173   0.175   0.176   0.178   0.180
  0.182   0.188   0.190   0.191   0.193   0.196   0.197   0.197
  0.203   0.204   0.208   0.212   0.213   0.215   0.217   0.221
  0.225   0.228   0.229   0.230   0.235   0.237   0.240   0.243
  0.247   0.249   0.252   0.254   0.256   0.258   0.261   0.263
  0.266   0.268   0.274   0.275   0.276   0.278   0.281   0.281
  0.285   0.291   0.293   0.297   0.298   0.301   0.302   0.304
  0.307   0.310   0.311   0.315   0.319   0.321   0.323   0.326
  0.331   0.333   0.336   0.340   0.341   0.347   0.348   0.351
  0.352   0.356   0.361   0.364   0.366   0.367   0.370   0.371
  0.372   0.376   0.379   0.386   0.388   0.396   0.397   0.401
  0.405   0.410   0.417   0.421   0.429   0.432   0.438   0.445
  0.450   0.453   0.460   0.463   0.468   0.470   0.472   0.473
  0.477   0.480   0.481   0.490   0.494   0.496   0.499   0.502
  0.504   0.508   0.508   0.510   0.513   0.514   0.518   0.520
  0.521   0.526   0.527   0.529   0.534   0.535   0.535   0.537
  0.537   0.539   0.540   0.543   0.544   0.548   0.550   0.552
  0.553   0.555   0.555   0.557   0.558   0.562   0.564   0.565
  0.567   0.569   0.570   0.576   0.577   0.579   0.583   0.585
  0.587   0.589   0.590   0.591   0.592   0.594   0.598   0.600
  0.604   0.606   0.607   0.608   0.610   0.611   0.612   0.615
  0.617   0.620   0.622   0.624   0.625   0.627   0.630   0.632
  0.634   0.635   0.638   0.640   0.642   0.643   0.645   0.648
  0.650   0.652   0.654   0.658   0.661   0.663   0.668   0.672
  0.676   0.677   0.680   0.683   0.688   0.688   0.691   0.695
  0.702   0.702   0.707   0.712   0.713   0.714   0.718   0.724
  0.727   0.733   0.737   0.741   0.744   0.745   0.748   0.750
  0.751   0.752   0.754   0.757   0.761   0.763   0.765   0.768
  0.770   0.773   0.774   0.779   0.780   0.787   0.787   0.791
  0.794   0.796   0.797   0.797   0.802   0.804   0.807   0.808
  0.811   0.814   0.816   0.820   0.822   0.826   0.827   0.828
  0.830   0.831   0.832   0.834   0.834   0.838   0.840   0.840
  0.841   0.843   0.845   0.848   0.849   0.853   0.854   0.856
  0.857   0.861   0.863   0.867   0.867   0.871   0.873   0.875
  0.878   0.879   0.881   0.882   0.883   0.885   0.887   0.889
  0.891   0.892   0.895   0.900   0.902   0.903   0.908   0.908
  0.910   0.912   0.915   0.916   0.921   0.924   0.927   0.927
  0.928   0.931   0.934   0.935   0.938   0.941   0.943   0.944
  0.948   0.951   0.953   0.956   0.960   0.961   0.963   0.965
  0.968   0.970   0.973   0.977   0.983   0.987   0.988   0.989
  0.991   0.993   0.993   0.996   0.997   0.997   1.003   1.006
  1.008   1.010   1.015   1.017   1.021   1.022   1.025   1.027
  1.031   1.034   1.038   1.041   1.043   1.045   1.048   1.051
  1.054   1.054   1.057   1.064   1.066   1.072   1.074   1.077
  1.082   1.084   1.088   1.096   1.103   1.104   1.105   1.111
  1.117   1.123   1.124   1.128   1.134   1.136   1.142   1.143
  1.150   1.153   1.158   1.165   1.167   1.169   1.177   1.179
  1.184   1.189   1.194   1.199   1.202   1.205   1.211   1.219
  1.221   1.226   1.233   1.235   1.243   1.248   1.254   1.258
  1.265   1.268   1.271   1.274   1.283   1.289   1.294   1.297
  1.300   1.305   1.313   1.313   1.316   1.320   1.328   1.337
  1.343   1.344   1.346   1.351   1.353   1.360   1.365   1.369
  1.370   1.375   1.383   1.387   1.388   1.395   1.400   1.405
  1.407   1.410   1.416   1.421   1.424   1.425   1.430   1.437
  1.438   1.440   1.447   1.452   1.460   1.462   1.465   1.472
  1.481   1.492   1.493   1.498   1.502   1.505   1.514   1.517
  1.522   1.530   1.530   1.539   1.544   1.554   1.557   1.562
  1.565   1.570   1.575   1.579   1.584   1.589   1.590   1.600
  1.603   1.605   1.610   1.616   1.624   1.638   1.640   1.650
  1.660   1.663   1.669   1.675   1.678   1.680   1.685   1.690
  1.692   1.697   1.699   1.702   1.706   1.709   1.715   1.716
  1.719   1.727   1.738   1.742   1.743   1.747   1.748   1.751
  1.754   1.759   1.761   1.764   1.765   1.768   1.774   1.778
  1.783   1.786   1.788   1.791   1.801   1.803   1.809   1.815
  1.817   1.817   1.821   1.825   1.830   1.830   1.838   1.839
  1.843   1.850   1.854   1.856   1.858   1.863   1.865   1.868
  1.869   1.872   1.874   1.881   1.886   1.890   1.894   1.898
  1.902   1.906   1.909   1.911   1.918   1.925   1.927   1.930
  1.933   1.937   1.939   1.941   1.948   1.951   1.953   1.960
  1.963   1.968   1.968   1.975   1.977   1.981   1.994   1.996
  1.999   2.002   2.008   2.011   2.017   2.020   2.026   2.031
  2.034   2.036   2.041   2.041   2.046   2.049   2.050   2.055
  2.062   2.068   2.068   2.077   2.079   2.082   2.094   2.098
  2.100   2.102   2.104   2.105   2.109   2.119   2.121   2.124
  2.126   2.127   2.133   2.136   2.136   2.145   2.156   2.158
  2.160   2.169   2.174   2.178   2.184   2.185   2.187   2.189
  2.191   2.198   2.200   2.206   2.212   2.215   2.218   2.219
  2.221   2.226   2.231   2.232   2.238   2.242   2.248   2.258
  2.262   2.264   2.267   2.271   2.276   2.279   2.279   2.281
  2.289   2.291   2.293   2.295   2.299   2.307   2.307   2.313
  2.314   2.317   2.319   2.321   2.322   2.326   2.327   2.330
  2.335   2.337   2.340   2.346   2.354   2.356   2.363   2.366
  2.370   2.373   2.377   2.378   2.382   2.384   2.386   2.390
  2.394   2.405   2.406   2.409   2.411   2.414   2.415   2.417
  2.422   2.427   2.429   2.432   2.432   2.435   2.437   2.440
  2.442   2.447   2.456   2.459   2.462   2.466   2.469   2.472
  2.477   2.482   2.484   2.487   2.489   2.493   2.501   2.504
  2.509   2.513   2.518   2.520   2.526   2.527   2.530   2.531
  2.537   2.545   2.547   2.552   2.554   2.562   2.564   2.571
  2.573   2.577   2.579   2.582   2.585   2.600   2.603   2.605
  2.609   2.609   2.611   2.615   2.630   2.632   2.638   2.641
  2.645   2.651   2.655   2.658   2.667   2.667   2.669   2.676
  2.681   2.682   2.683   2.684   2.685   2.695   2.697   2.701
  2.711   2.715   2.719   2.722   2.724   2.726   2.737   2.740
  2.743   2.760   2.762   2.766   2.767   2.771   2.781   2.784
  2.785   2.789   2.798   2.806   2.811   2.812   2.821   2.825
  2.830   2.831   2.839   2.846   2.854   2.860   2.862   2.864
  2.876   2.885   2.886   2.894   2.896   2.901   2.905   2.908
  2.911   2.914   2.917   2.919   2.924   2.930   2.932   2.936
  2.942   2.946   2.973   2.977   2.986   2.991   3.023   3.029
  3.044   3.053   3.056   3.080   3.083   3.093   3.101   3.123
  3.139   3.173   3.184   3.188   3.189   3.210   3.230   3.233
  3.244   3.250   3.252   3.257   3.261   3.267   3.272   3.276
  3.295   3.303   3.308   3.312   3.324   3.332   3.335   3.345
  3.363   3.366   3.382   3.390   3.393   3.399   3.413   3.425
  3.445   3.451   3.461   3.470   3.481   3.499   3.514   3.517
  3.531   3.564   3.568   3.576   3.595   3.598   3.616   3.617
  3.619   3.638   3.700   3.776   3.846   3.866   3.906   3.929
  3.930   3.944   3.953   3.955   3.960   3.989   3.995   4.001
  4.009   4.055   4.064   4.076   4.093   4.101   4.112   4.121
  4.131   4.137   4.149   4.155   4.160   4.162   4.186   4.195
  4.212   4.220   4.229   4.234   4.239   4.249   4.269   4.271
  4.278   4.278   4.305   4.329   4.360   4.378   4.385   4.393
  4.409   4.419   4.429   4.444   4.452   4.463   4.473   4.498
  4.503   4.521   4.525   4.558   4.581   4.596   4.647   4.677
  4.685   4.696   4.707   4.724   4.733   4.740   4.776   4.840
 --------------------------------------------------------------
 
          Ground-State Mulliken Net Atomic Charges

     Atom                 Charge (a.u.)
  ----------------------------------------
      1 C                     0.279018
      2 C                    -0.122753
      3 N                    -0.484979
      4 C                    -0.082403
      5 C                     0.049022
      6 C                     0.059213
      7 C                     0.068423
      8 C                     0.037091
      9 C                     0.251455
     10 N                    -0.513252
     11 N                    -0.566481
     12 C                     0.224071
     13 C                     0.287678
     14 S                     0.606262
     15 N                    -0.574891
     16 C                    -0.249628
     17 S                     0.365411
     18 C                    -0.112490
     19 C                    -0.196917
     20 S                     0.302572
     21 C                     0.127842
     22 C                     0.042941
     23 C                    -0.332165
     24 C                    -0.067133
     25 N                    -0.426342
     26 S                     0.255851
     27 C                     0.120668
     28 C                    -0.312136
     29 C                    -0.222688
     30 H                     0.093050
     31 H                     0.096631
     32 H                     0.099715
     33 H                     0.113941
     34 H                     0.142987
     35 H                     0.108783
     36 H                     0.116968
     37 H                     0.138874
     38 H                     0.095895
     39 C                    -0.177548
     40 H                     0.113921
     41 H                     0.103961
     42 H                     0.115790
     43 C                    -0.189248
     44 H                     0.091430
     45 C                    -0.175814
     46 H                     0.090764
     47 H                     0.096984
     48 H                     0.107479
     49 C                    -0.179510
     50 H                     0.091028
     51 C                    -0.334778
     52 H                     0.089717
     53 H                     0.097367
     54 H                     0.104882
     55 H                     0.106122
     56 C                     0.283880
     57 C                    -0.103720
     58 N                    -0.485293
     59 C                    -0.092642
     60 C                     0.054752
     61 C                     0.052385
     62 C                     0.014508
     63 C                     0.047147
     64 C                     0.294594
     65 N                    -0.482824
     66 N                    -0.587554
     67 C                     0.200431
     68 C                     0.245195
     69 S                     0.629030
     70 N                    -0.556319
     71 C                    -0.215047
     72 S                     0.326106
     73 C                    -0.097325
     74 C                    -0.205121
     75 S                     0.260901
     76 C                     0.117673
     77 C                     0.026674
     78 C                    -0.305625
     79 C                    -0.043924
     80 N                    -0.407394
     81 S                     0.289522
     82 C                     0.121896
     83 C                    -0.315209
     84 C                    -0.260626
     85 H                     0.094041
     86 H                     0.095952
     87 H                     0.123893
     88 H                     0.125221
     89 H                     0.138359
     90 H                     0.120731
     91 H                     0.106529
     92 H                     0.137596
     93 H                     0.123372
     94 C                    -0.189461
     95 H                     0.109725
     96 H                     0.111461
     97 H                     0.094472
     98 C                    -0.186531
     99 H                     0.095442
    100 C                    -0.174224
    101 H                     0.103529
    102 H                     0.092618
    103 H                     0.093453
    104 C                    -0.181125
    105 H                     0.094831
    106 C                    -0.313746
    107 H                     0.093725
    108 H                     0.103506
    109 H                     0.105818
    110 H                     0.102093
  ----------------------------------------
  Sum of atomic charges =     0.000000

 -----------------------------------------------------------------
                    Cartesian Multipole Moments
 -----------------------------------------------------------------
    Charge (ESU x 10^10)
                 0.0000
    Dipole Moment (Debye)
         X       0.8466      Y       5.5358      Z      -2.6375
       Tot       6.1901
    Quadrupole Moments (Debye-Ang)
        XX    -382.1860     XY       8.6653     YY    -448.5211
        XZ      -4.9912     YZ       0.3235     ZZ    -434.7735
    Octopole Moments (Debye-Ang^2)
       XXX     441.3746    XXY      20.3236    XYY     112.8988
       YYY     224.8529    XXZ    -307.5195    XYZ     -12.0294
       YYZ      25.9650    XZZ     -29.0374    YZZ      46.9189
       ZZZ      35.0052
    Hexadecapole Moments (Debye-Ang^3)
      XXXX  -84705.5997   XXXY    -819.9686   XXYY  -19633.8293
      XYYY     196.7526   YYYY  -29309.7067   XXXZ   -1220.0395
      XXYZ     -18.0133   XYYZ    -245.3591   YYYZ     486.7628
      XXZZ  -16608.4402   XYZZ     133.7520   YYZZ   -6050.1770
      XZZZ    -151.7951   YZZZ      56.1394   ZZZZ   -7062.9540
 -----------------------------------------------------------------
Archival summary:
1\1\mn246\SP\ProcedureUnspecified\6-31G**\8105042\afmv_a\FriOct1203:51:522018FriOct1203:51:522018\0\\#,ProcedureUnspecified,6-31G**,\\0,1\S\N,1,1.6356\C,2,1.32072,1,107.335\C,3,1.35736,2,112.325,1,-9.63113,0\N,4,1.31543,3,118.073,2,8.79776,0\C,3,1.40492,2,126.584,1,178.156,0\C,6,1.34063,3,116.278,2,171.82,0\H,7,1.08898,6,121.94,3,-171.496,0\N,7,1.34385,6,124.555,3,1.35514,0\C,9,1.33604,7,119.376,6,6.95179,0\C,10,1.47405,9,114.32,7,164.934,0\C,11,1.39541,10,127.51,9,-152.716,0\C,12,1.3631,11,112.047,10,164.84,0\C,13,1.38729,12,116.674,11,1.0643,0\C,13,1.42497,12,112.589,11,-170.84,0\H,15,1.084,13,124.547,12,176.406,0\C,15,1.38827,13,113.618,12,-4.71491,0\H,17,1.08171,15,131.741,13,-177.317,0\C,14,1.46814,13,123.797,12,175.155,0\N,19,1.34076,14,119.268,13,172.678,0\C,20,1.38864,19,111.276,14,164.112,0\H,21,1.08254,20,113.043,19,170.645,0\C,21,1.36102,20,116.135,19,1.26402,0\H,23,1.08176,21,131.56,20,168.271,0\C,6,1.47722,3,127.434,2,-6.7238,0\C,25,1.36341,6,122.735,3,-38.6016,0\H,26,1.08658,25,120.422,6,-0.892799,0\C,26,1.39726,25,123.511,6,178.297,0\H,28,1.08602,26,122.801,25,176.045,0\C,28,1.38322,26,118.727,25,-2.80846,0\N,30,1.31809,28,120.506,26,3.72121,0\C,31,1.36618,30,119.402,28,-6.3185,0\H,32,1.08925,31,114.588,30,-173.56,0\C,30,1.52728,28,121.107,26,179.232,0\H,34,1.09654,30,110.523,28,-131.303,0\H,34,1.09718,30,110.392,28,-14.2215,0\C,34,1.55635,30,105.235,28,101.852,0\H,37,1.09644,34,105.613,30,68.9552,0\H,37,1.09802,34,109.613,30,-53.3627,0\C,37,1.51383,34,112.294,30,-170.981,0\H,40,1.09638,37,108.829,34,-32.4479,0\H,40,1.09702,37,112.723,34,-146.829,0\C,40,1.60304,37,115.354,34,88.4468,0\H,43,1.09719,40,110.144,37,36.0833,0\H,43,1.09751,40,113.333,37,-86.154,0\C,43,1.52471,40,109.464,37,158.21,0\H,46,1.09627,43,111.231,40,47.5221,0\H,46,1.09669,43,112.596,40,-54.3505,0\C,46,1.53202,43,118.83,40,-179.175,0\H,49,1.09664,46,117.408,43,-55.8485,0\H,49,1.09707,46,115.179,43,73.0983,0\H,49,1.09756,46,109.058,43,179.673,0\S,12,1.74048,11,133.986,10,-12.3664,0\S,14,1.7546,13,109.529,12,1.52595,0\S,23,1.76148,21,110.642,20,5.11583,0\H,45,2.41143,43,155.814,40,122.81,0\C,56,1.09715,45,141.519,43,72.1587,0\H,57,1.09657,56,113.013,45,-177.588,0\C,57,1.55418,56,110.897,45,64.0275,0\H,59,1.09704,57,103.509,56,34.3488,0\H,59,1.09764,57,104.576,56,-77.2217,0\C,59,1.57666,57,116.78,56,161.194,0\H,62,1.09707,59,107.348,57,-65.6592,0\H,62,1.09718,59,112.872,57,53.6764,0\C,62,1.57094,59,112.798,57,177.376,0\H,65,1.09692,62,110.812,59,65.4442,0\H,65,1.09734,62,109.583,59,-49.6145,0\C,65,1.52454,62,113.79,59,-174.729,0\H,68,1.09664,65,110.552,62,54.5233,0\H,68,1.09715,65,105.518,62,170.101,0\H,68,1.0972,65,108.503,62,-70.6019,0\C,57,1.61596,56,106.563,45,-58.3973,0\H,72,1.09671,57,110.081,56,167.012,0\H,72,1.09717,57,112.016,56,53.2392,0\C,72,1.46197,57,117.21,56,-69.0174,0\N,75,1.34238,72,119.346,57,112.306,0\C,76,1.36536,75,116.429,72,-177.622,0\H,77,1.08924,76,109.465,75,-173.323,0\C,77,1.41308,76,128.931,75,-6.87862,0\C,75,1.4302,72,118.729,57,-68.6288,0\H,80,1.08662,75,114.569,72,6.1533,0\C,80,1.39612,75,118.561,72,-174.006,0\H,82,1.08627,80,123.926,75,171.229,0\C,79,1.47373,77,122.281,76,-178.203,0\C,84,1.4736,79,122.459,77,-137.348,0\H,85,1.08894,84,124.113,79,8.30064,0\N,85,1.36972,84,123.583,79,-175.33,0\C,87,1.33912,85,118.398,84,-9.02808,0\C,88,1.42189,87,121.467,85,-6.98173,0\C,89,1.34081,88,120.809,87,15.7247,0\N,90,1.35545,89,113.441,88,172.729,0\N,89,1.4038,88,124.836,87,-170.383,0\C,88,1.50322,87,111.17,85,174.522,0\C,93,1.34274,88,121.133,87,-141.055,0\C,94,1.39927,93,111.759,88,174.969,0\C,95,1.3951,94,114.913,93,2.92043,0\C,96,1.44484,95,125.057,94,-165.306,0\N,97,1.30978,96,115.298,95,-39.3077,0\C,98,1.3345,97,105.842,96,-175.849,0\H,99,1.08174,98,120.893,97,175.701,0\C,99,1.37315,98,118.328,97,3.45075,0\H,101,1.08213,99,131.219,98,177.415,0\C,95,1.45072,94,111.05,93,-166.726,0\H,103,1.08394,95,122.062,94,-179.272,0\C,103,1.37046,95,112.376,94,6.73001,0\H,105,1.0824,103,127.784,95,171.523,0\S,92,1.65134,89,108.536,88,-175.67,0\S,96,1.69195,95,111.205,94,-5.36472,0\S,101,1.69829,99,110.938,98,-4.78144,0\S,105,1.7357,103,113.604,95,-3.58106,0\\\@

 Total job time:  96.48s(wall), 1150.60s(cpu) 
 Fri Oct 12 03:51:52 2018

        *************************************************************
        *                                                           *
        *  Thank you very much for using Q-Chem.  Have a nice day.  *
        *                                                           *
        *************************************************************


