
Running Job 1 of 1 ./9/15.qcin
qchem ./9/15.qcin_141594.0 /tmpu/cab_g/afmv_a/scratch_qchem/qchem141594/ 1
/tmpu/appuserlic/qchem4.4/serial-multicore/exe/qcprog.exe_s ./9/15.qcin_141594.0 /tmpu/cab_g/afmv_a/scratch_qchem/qchem141594/
Check license passed

                  Welcome to Q-Chem
     A Quantum Leap Into The Future Of Chemistry


 Q-Chem 4.4, Q-Chem, Inc., Pleasanton, CA (2016)

 Y. Shao,  Z. Gan,  E. Epifanovsky,  A. T. B. Gilbert,  M. Wormit,  
 J. Kussmann,  A. W. Lange,  A. Behn,  J. Deng,  X. Feng,  D. Ghosh,  
 M. Goldey,  P. R. Horn,  L. D. Jacobson,  I. Kaliman,  F. Rob,  
 R. Z. Khaliullin,  T. Kus,  A. Landau,  J. Liu,  E. I. Proynov,  Y. M. Rhee,  
 R. M. Richard,  M. A. Rohrdanz,  R. P. Steele,  E. J. Sundstrom,  
 H. L. Woodcock III,  P. M. Zimmerman,  D. Zuev,  B. Albrecht,  E. Alguire,  
 B. Austin,  S. A. Baeppler,  G. J. O. Beran,  Y. A. Bernard,  E. Berquist,  
 K. Brandhorst,  K. B. Bravaya,  S. T. Brown,  D. Casanova,  C.-M. Chang,  
 Y. Chen,  S. H. Chien,  K. D. Closser,  M. P. Coons,  D. L. Crittenden,  
 S. Dasgupta,  M. Diedenhofen,  R. A. DiStasio Jr.,  H. Do,  A. D. Dutoi,  
 R. G. Edgar,  P.-T. Fang,  S. Fatehi,  Q. Feng,  L. Fusti-Molnar,  
 A. Ghysels,  A. Golubeva-Zadorozhnaya,  J. Gomes,  A. Gunina,  
 M. W. D. Hanson-Heine,  P. H. P. Harbach,  A. W. Hauser,  J. E. Herr,  
 E. G. Hohenstein,  Z. C. Holden,  K. Hui,  T.-C. Jagau,  H. Ji,  B. Kaduk,  
 K. Khistyaev,  Jaehoon Kim,  Jihan Kim,  R. A. King,  P. Klunzinger,  
 K. Koh,  D. Kosenkov,  T. Kowalczyk,  C. M. Krauter,  A. Kunitsa,  
 K. U. Lao,  A. Laurent,  K. V. Lawler,  J. Lee,  D. Lefrancois,  S. Lehtola,  
 S. V. Levchenko,  C. Y. Lin,  Y.-S. Lin,  F. Liu,  E. Livshits,  
 R. C. Lochan,  A. Luenser,  P. Manohar,  S. F. Manzer,  S.-P. Mao,  Y. Mao,  
 N. Mardirossian,  A. V. Marenich,  L. A. Martinez-Martinez,  S. A. Maurer,  
 N. J. Mayhall,  J.-M. Mewes,  A. F. Morrison,  K. Nanda,  T. S. Nguyen-Beck,  
 C. M. Oana,  R. Olivares-Amaya,  D. P. O'Neill,  J. A. Parkhill,  
 T. M. Perrine,  R. Peverati,  P. A. Pieniazek,  F. Plasser,  A. Prociuk,  
 D. R. Rehn,  E. Rosta,  N. J. Russ,  N. Sergueev,  S. M. Sharada,  
 S. Sharma,  D. W. Small,  A. Sodt,  T. Stauch,  T. Stein,  D. Stuck,  
 Y.-C. Su,  A. J. W. Thom,  T. Tsuchimochi,  L. Vogt,  O. Vydrov,  T. Wang,  
 M. A. Watson,  J. Wenzel,  A. White,  C. F. Williams,  V. Vanovschi,  
 K. Yao,  S. Yeganeh,  S. R. Yost,  Z.-Q. You,  I. Y. Zhang,  X. Zhang,  
 Y. Zhao,  B. R. Brooks,  G. K. L. Chan,  D. M. Chipman,  C. J. Cramer,  
 W. A. Goddard III,  M. S. Gordon,  W. J. Hehre,  A. Klamt,  
 H. F. Schaefer III,  M. W. Schmidt,  C. D. Sherrill,  D. G. Truhlar,  
 A. Warshel,  X. Xu,  A. Aspuru-Guzik,  R. Baer,  A. T. Bell,  N. A. Besley,  
 J.-D. Chai,  A. Dreuw,  B. D. Dunietz,  T. R. Furlani,  S. R. Gwaltney,  
 C.-P. Hsu,  Y. Jung,  J. Kong,  D. S. Lambrecht,  W. Liang,  C. Ochsenfeld,  
 V. A. Rassolov,  L. V. Slipchenko,  J. E. Subotnik,  T. Van Voorhis,  
 J. M. Herbert,  A. I. Krylov,  P. M. W. Gill,  M. Head-Gordon

 Contributors to earlier versions of Q-Chem not listed above: 
 R. D. Adamson,  J. Baker,  E. F. C. Byrd,  A. K. Chakraborty,  C.-L. Cheng,  
 H. Dachsel,  R. J. Doerksen,  G. Hawkins,  A. Heyden,  S. Hirata,  
 G. Kedziora,  F. J. Keil,  C. Kelley,  P. P. Korambath,  W. Kurlancheek,  
 A. M. Lee,  M. S. Lee,  D. Liotard,  I. Lotan,  P. E. Maslen,  N. Nair,  
 D. Neuhauser,  R. Olson,  B. Peters,  J. Ritchie,  N. E. Schultz,  
 N. Shenvi,  A. C. Simmonett,  K. S. Thanthiriwatte,  Q. Wu,  W. Zhang

 Please cite Q-Chem as follows:
 Y. Shao et al., Mol. Phys. 113, 184-215 (2015)
 DOI: 10.1080/00268976.2014.952696

 Q-Chem 4.4.2 for Intel X86 Linux

 Parts of Q-Chem use Armadillo 5.200.1 (Boston Tea Smuggler).
 http://arma.sourceforge.net/

 Q-Chem begins on Sat Oct  6 13:14:53 2018  

Host: 
0

     Scratch files written to /tmpu/cab_g/afmv_a/scratch_qchem/qchem141594//
 Dec716 11556_ 22328  22283 4050   
Processing $rem in /tmpu/appuserlic/qchem4.4/serial-multicore/config/preferences.
 MEM_TOTAL  2000 
FILE_GEOM_ORG=        593

Checking the input file for inconsistencies... 	...done.

--------------------------------------------------------------
User input:
--------------------------------------------------------------
$comment
SP
$end

$rem
MEM_STATIC 5000
MEM_TOTAL 20000
JOBTYPE SP
EXCHANGE B3LYP
BASIS 6-31g(d,p)
$end

$molecule
0 1
O         -11.669000     14.156000     -1.325000
C         -10.695000     13.167000     -1.571000
H         -11.196000     12.194000     -1.648000
H         -10.041000     13.081000     -0.695000
H         -10.152000     13.413000     -2.492000
O         -12.738000     12.971000      0.332000
C         -12.521000     13.995000     -0.342000
C         -13.193000     15.280000     -0.074000
H         -14.192000     15.059000      0.321000
H         -13.334000     15.762000     -1.050000
C         -12.616000     16.222000      1.015000
H         -12.846000     15.722000      1.964000
H         -11.522000     16.293000      0.992000
C         -13.304000     17.603000      0.862000
H         -13.075000     18.041000     -0.118000
H         -14.391000     17.458000      0.823000
C         -12.958000     18.644000      1.980000
C         -13.671000     18.321000      3.235000
C         -12.990000     17.562000      4.234000
H         -11.973000     17.248000      4.017000
C         -13.622000     17.247000      5.427000
H         -13.128000     16.675000      6.207000
C         -14.984000     17.689000      5.647000
H         -15.487000     17.505000      6.592000
C         -15.636000     18.443000      4.611000
H         -16.610000     18.864000      4.843000
C         -14.989000     18.783000      3.374000
H         -15.486000     19.363000      2.602000
C         -12.554000     23.960000      3.214000
C         -11.054000     22.892000      4.781000
C          -7.178000     24.484000      2.921000
C         -11.448000     22.634000     -1.513000
C          -6.619000     21.470000      1.151000
C         -12.266000     22.869000      4.061000
C          -8.667000     22.266000     -1.691000
C          -9.285000     25.560000      3.298000
C          -9.558000     19.599000      3.153000
C         -10.896000     21.290000     -1.529000
C         -11.576000     19.254000      2.070000
C          -9.268000     19.190000      1.864000
C          -9.234000     20.007000     -0.736000
C          -7.456000     22.293000     -0.935000
C         -11.390000     20.790000      4.055000
C          -6.807000     23.813000      0.810000
C         -12.737000     20.096000      1.499000
C         -12.587000     20.621000      0.076000
C          -6.350000     22.790000      1.640000
C         -10.259000     25.649000     -0.104000
C          -8.250000     25.709000      1.095000
C          -9.327000     26.068000      1.994000
C         -10.509000     25.131000      3.890000
C         -12.993000     21.998000      0.175000
C         -10.931000     19.716000      3.338000
C         -10.196000     24.038000      4.725000
C          -9.489000     21.108000     -1.604000
C         -10.516000     21.609000      4.766000
C          -8.123000     19.708000      1.246000
C         -12.297000     24.279000     -0.206000
C          -8.233000     24.769000      3.763000
C         -10.411000     19.023000      1.126000
C         -11.750000     25.523000      1.816000
C          -7.991000     20.062000     -0.106000
C          -8.630000     20.417000      3.910000
C          -8.361000     24.344000     -0.956000
C          -9.201000     23.546000     -1.712000
C          -7.436000     20.888000      3.337000
C         -12.473000     22.961000     -0.665000
C         -11.435000     20.315000     -0.699000
C         -11.129000     24.819000     -0.876000
C         -13.089000     21.309000      2.339000
C          -8.266000     22.579000      4.658000
C         -10.397000     19.581000     -0.164000
C          -7.256000     20.557000      1.999000
C         -12.592000     24.666000      1.151000
C          -6.618000     23.168000      2.958000
C         -11.713000     25.087000      3.142000
C          -7.226000     24.894000      1.589000
C          -9.120000     21.487000      4.678000
C          -7.158000     22.192000      3.816000
C         -12.521000     21.549000      3.617000
C         -13.304000     22.400000      1.503000
C          -8.876000     25.326000     -0.137000
C          -8.799000     23.868000      4.654000
C          -7.139000     21.180000     -0.110000
C         -10.592000     23.783000     -1.637000
C          -7.327000     23.546000     -0.479000
C         -13.151000     23.721000      1.967000
C         -10.496000     25.960000      1.252000
O          -6.241000     27.921000      1.242000
C          -5.960000     28.698000      2.454000
H          -6.755000     28.600000      3.205000
H          -5.852000     29.735000      2.114000
H          -4.983000     28.357000      2.817000
O          -4.582000     28.810000     -0.117000
C          -5.547000     28.057000      0.015000
C          -5.981000     27.030000     -1.075000
H          -6.892000     27.430000     -1.538000
H          -6.321000     26.106000     -0.592000
C          -4.920000     26.714000     -2.187000
H          -4.668000     27.684000     -2.634000
H          -4.014000     26.318000     -1.712000
C          -5.548000     25.702000     -3.188000
H          -6.086000     24.816000     -2.828000
H          -6.347000     26.304000     -3.639000
C          -4.468000     25.304000     -4.243000
C          -3.842000     26.410000     -5.045000
C          -2.768000     27.168000     -4.693000
H          -2.208000     26.805000     -3.837000
C          -2.288000     28.229000     -5.448000
H          -1.331000     28.696000     -5.234000
C          -2.936000     28.565000     -6.636000
H          -2.515000     29.324000     -7.289000
C          -4.052000     27.881000     -7.038000
H          -4.505000     28.153000     -7.987000
C          -4.475000     26.755000     -6.275000
H          -5.291000     26.185000     -6.709000
C          -3.392000     21.808000     -8.420000
C          -1.156000     22.253000     -7.521000
C          -0.596000     18.228000     -5.517000
C          -6.516000     20.175000     -4.713000
C          -1.490000     19.281000     -2.365000
C          -2.483000     22.694000     -7.870000
C          -4.938000     18.846000     -2.763000
C          -1.454000     18.729000     -7.788000
C          -1.463000     23.083000     -3.572000
C          -6.037000     20.809000     -3.564000
C          -3.541000     24.139000     -3.965000
C          -2.294000     22.654000     -2.549000
C          -4.420000     21.097000     -1.919000
C          -3.689000     18.398000     -2.444000
C          -1.798000     23.692000     -5.891000
C          -2.020000     17.477000     -3.889000
C          -4.654000     23.969000     -4.985000
C          -5.682000     22.922000     -4.709000
C          -1.058000     18.351000     -3.321000
C          -4.772000     17.983000     -6.721000
C          -2.650000     17.241000     -6.222000
C          -2.568000     17.951000     -7.455000
C          -1.642000     19.992000     -8.384000
C          -5.983000     22.241000     -5.917000
C          -2.137000     23.868000     -4.516000
C          -0.757000     20.929000     -7.786000
C          -5.316000     20.163000     -2.565000
C          -0.793000     22.825000     -6.298000
C          -2.068000     21.428000     -1.886000
C          -5.986000     20.000000     -6.896000
C          -0.475000     18.892000     -6.795000
C          -3.570000     23.210000     -2.752000
C          -4.057000     19.636000     -8.369000
C          -3.137000     20.674000     -1.530000
C          -0.409000     22.311000     -3.969000
C          -4.321000     17.348000     -4.402000
C          -5.386000     18.163000     -3.990000
C          -0.157000     21.089000     -3.380000
C          -6.457000     20.915000     -5.949000
C          -5.636000     22.167000     -3.481000
C          -5.786000     18.755000     -6.271000
C          -4.190000     23.507000     -6.356000
C           0.364000     20.905000     -5.535000
C          -4.673000     22.345000     -2.507000
C          -1.044000     20.640000     -2.355000
C          -5.103000     20.419000     -7.946000
C          -0.234000     18.833000     -4.294000
C          -3.010000     20.467000     -8.710000
C          -1.675000     17.360000     -5.257000
C          -0.052000     22.224000     -5.350000
C           0.256000     20.183000     -4.359000
C          -2.857000     23.602000     -6.803000
C          -5.128000     22.596000     -6.905000
C          -4.000000     17.319000     -5.759000
C           0.036000     20.248000     -6.809000
C          -2.829000     19.327000     -1.936000
C          -6.145000     18.824000     -4.939000
C          -3.287000     17.508000     -3.445000
C          -4.688000     21.706000     -7.928000
C          -3.881000     18.337000     -7.726000
$end

--------------------------------------------------------------
 ----------------------------------------------------------------
             Standard Nuclear Orientation (Angstroms)
    I     Atom           X                Y                Z
 ----------------------------------------------------------------
    1      O       4.1917038248    -7.6468204937     1.2021761189
    2      C       3.3840227272    -8.5667672100     0.5031322835
    3      H       3.7849226461    -9.5755906524     0.6619199318
    4      H       3.4849117842    -8.3875069299    -0.5739819863
    5      H       2.3493694711    -8.4853260564     0.8587528369
    6      O       6.1820216932    -8.5216272741     0.4498577824
    7      C       5.4905415912    -7.6617170876     1.0263564724
    8      C       6.0639789265    -6.4207118774     1.5792657693
    9      H       7.0873324876    -6.6417328106     1.9060137395
   10      H       5.4828024381    -6.1893383477     2.4811976843
   11      C       6.2798614714    -5.2043664842     0.6411225973
   12      H       7.1207408742    -5.4952465216    -0.0006029154
   13      H       5.4445743528    -5.0348713978    -0.0487852554
   14      C       6.5783378097    -3.9676557953     1.5273350704
   15      H       5.7226901858    -3.7439996321     2.1773581963
   16      H       7.3733278908    -4.2222792313     2.2395658454
   17      C       6.9773365739    -2.6711543069     0.7442610785
   18      C       8.3661783564    -2.7676908821     0.2447391142
   19      C       8.5831770850    -3.2099465357    -1.0950983717
   20      H       7.7078795786    -3.4650857805    -1.6856339261
   21      C       9.8699816366    -3.3049915010    -1.6020485670
   22      H      10.0658047142    -3.6339750284    -2.6184358755
   23      C      10.9936558367    -2.9585491011    -0.7557968575
   24      H      12.0094091553    -2.9705823495    -1.1404920572
   25      C      10.7309519025    -2.5267466303     0.5901040560
   26      H      11.5754950142    -2.1603530881     1.1665099069
   27      C       9.4017852279    -2.4160339869     1.1243667831
   28      H       9.2128481997    -2.0777695079     2.1388976804
   29      C       7.0627734581     2.7996486284     0.8383024596
   30      C       7.0717999902     2.2664911483    -1.5200390388
   31      C       2.8245817667     3.7612863309    -2.3826888654
   32      C       3.2138683742     0.5466465772     3.1698153616
   33      C       1.4800677426     0.4923482682    -2.1932080454
   34      C       7.4984984915     1.9630693000    -0.2109414217
   35      C       1.0558501915     0.4188611581     1.3732359979
   36      C       4.5553333656     4.6856239882    -1.0081151869
   37      C       5.1466626946    -1.1497568197    -2.1161474296
   38      C       2.9015859833    -0.7058239742     2.5026622860
   39      C       5.9588073651    -1.9257994881    -0.0907050555
   40      C       4.1095905247    -1.8111907136    -1.4837800376
   41      C       2.2944335981    -1.6076838738     0.5391968031
   42      C       0.6534346259     0.7342509693     0.0400529724
   43      C       7.0113977937     0.0320613376    -1.2709386666
   44      C       1.2036196575     2.6668472032    -1.2786563313
   45      C       6.3760453140    -1.3522405450     1.2803779591
   46      C       5.2784759423    -1.1527041170     2.3189253523
   47      C       1.4967636199     1.9086541525    -2.4115675878
   48      C       3.0179518364     3.9036935262     2.0830405494
   49      C       2.3125520580     4.4290981241    -0.0857478592
   50      C       3.6809345526     4.8771660146     0.0684452471
   51      C       5.8936402225     4.2860849139    -0.7217862068
   52      C       5.5344273289     0.1647591920     2.8381028914
   53      C       6.2817254285    -1.1272526233    -1.3135459400
   54      C       6.3029654997     3.4472587389    -1.7794565078
   55      C       1.8194136124    -0.7629964946     1.5839500010
   56      C       6.7656453688     1.0719989478    -2.1644113928
   57      C       2.8056191696    -1.3389780408    -1.6785796705
   58      C       4.5785323809     2.3556806151     3.1825824500
   59      C       4.1448169861     4.1268156608    -2.2196512182
   60      C       4.4846980202    -2.2515559067    -0.2410592872
   61      C       5.4106750407     4.0739771516     1.6692336447
   62      C       1.7824030442    -1.2907260402    -0.7187127499
   63      C       4.8912912073    -0.0950957392    -3.0783492840
   64      C       1.1464972014     2.6291783298     1.1319351067
   65      C       1.3354077163     1.6026448412     2.0399449163
   66      C       3.5844963296     0.3465566850    -3.3486015439
   67      C       4.5123396800     0.9571418693     3.3185563551
   68      C       3.9321615546    -1.5139486165     2.0390950803
   69      C       3.2211851303     2.8396089529     3.0148153340
   70      C       7.0963187140    -0.0199016846     1.1969969650
   71      C       4.9405618833     2.2051871701    -3.3476352617
   72      C       3.5738364054    -2.0029589277     0.8001854778
   73      C       2.5904806445    -0.2610956872    -2.5903823063
   74      C       5.6661889314     3.0107813009     2.4998751046
   75      C       2.5392027729     2.5487772206    -3.0863972478
   76      C       6.2975296664     3.9567203743     0.5970952577
   77      C       1.9440494161     3.8509202359    -1.3050727266
   78      C       5.6781688007     1.0689417119    -3.0525720580
   79      C       3.5891644458     1.7459559791    -3.5695106297
   80      C       7.5012117660     0.5583552167    -0.0339329975
   81      C       6.6135508300     0.8262483368     2.1901572297
   82      C       1.9929380341     3.7171277082     1.1173040943
   83      C       5.2299128817     3.4016553185    -2.6916124193
   84      C       1.0547786285    -0.1258417756    -1.0177969516
   85      C       2.4012031525     1.7146593567     2.9609269121
   86      C       0.7579015486     2.0645740225    -0.0779014091
   87      C       6.6999332952     2.2266042487     2.0665150450
   88      C       4.0679496035     4.4905419525     1.3449757735
   89      O       0.7349848429     6.8004024744    -1.0016252309
   90      C       1.2661204982     7.8561872439    -1.8704447957
   91      H       2.3636273311     7.8550810243    -1.9037243398
   92      H       0.8761148441     8.7941148625    -1.4571405832
   93      H       0.8072573818     7.7029461480    -2.8545895040
   94      O      -1.4728915187     7.5133128917    -0.9208557531
   95      C      -0.6059633145     6.7202731991    -0.5531853372
   96      C      -0.9220397111     5.4351853764     0.2713327035
   97      H      -0.5833815879     5.6292386467     1.2969759182
   98      H      -0.2737428578     4.6168141433    -0.0642931521
   99      C      -2.4231992490     4.9787821224     0.2896932946
  100      H      -2.9858702841     5.8413934699     0.6685283107
  101      H      -2.7505062526     4.7908501948    -0.7402721010
  102      C      -2.5371023472     3.7096887900     1.1824178871
  103      H      -1.8260533316     2.8809869266     1.0742397050
  104      H      -2.2902619760     4.1130462236     2.1726595808
  105      C      -4.0079583626     3.1886365150     1.1284168820
  106      C      -5.0953701620     4.1384880612     1.5451105569
  107      C      -5.7230016574     5.0570228754     0.7613271039
  108      H      -5.5429026799     4.9542302373    -0.3040850378
  109      C      -6.6669336011     5.9598253916     1.2304604564
  110      H      -7.2753182674     6.5536732189     0.5544820131
  111      C      -6.9994152490     5.9524148181     2.5845450317
  112      H      -7.8072861501     6.5800809240     2.9493886511
  113      C      -6.3796781571     5.0901425866     3.4490266890
  114      H      -6.6936731598     5.0939658671     4.4888278819
  115      C      -5.4675883960     4.1316967676     2.9213450807
  116      H      -5.1016167793     3.4016554413     3.6370380580
  117      C      -7.2936687786    -1.0448018674     2.5807348656
  118      C      -8.3981656517    -0.1926092839     0.5658461693
  119      C      -7.1595960322    -3.5825921951    -2.1735337166
  120      C      -2.3785057416    -2.0863700281     1.6193701657
  121      C      -4.4903380652    -1.9318550140    -3.5853685739
  122      C      -7.6776380333     0.0268221582     1.7946263748
  123      C      -2.1524506365    -2.7777516887    -1.1246625398
  124      C      -8.0670727973    -3.6968097636     0.1303860450
  125      C      -5.6193878735     1.4801830773    -1.8544657477
  126      C      -2.0248875515    -1.1643049089     0.6312668859
  127      C      -4.4190117984     2.2127969114     0.0455456334
  128      C      -4.2878941345     1.2167377822    -2.1352717292
  129      C      -2.1613972689    -0.3544825761    -1.5434080062
  130      C      -2.8342398720    -3.0183426293    -2.2821362707
  131      C      -6.9567294542     1.5103359761     0.1633239587
  132      C      -4.9595288010    -4.0778417995    -2.5692520601
  133      C      -4.2529211625     1.7082828817     1.4689038084
  134      C      -3.2197637390     0.6570249161     1.7068353705
  135      C      -5.3700397660    -3.0086188676    -3.4060238745
  136      C      -4.8295660509    -4.4982198074     1.3875340112
  137      C      -6.0179349601    -4.8982081873    -0.5438482999
  138      C      -6.9539734784    -4.4827792603     0.4472943230
  139      C      -8.4248191806    -2.6267914079     0.9746651716
  140      C      -3.7411604197    -0.3067665062     2.6084326174
  141      C      -5.8072506699     1.9608203675    -0.5524164533
  142      C      -8.7632499991    -1.4971557704     0.1820833730
  143      C      -1.8468408672    -1.4931950646    -0.7086169314
  144      C      -7.9041181524     0.6749810917    -0.4128703415
  145      C      -3.9170244491     0.2014909586    -3.0438148288
  146      C      -4.2058332690    -2.7011877211     2.7855122291
  147      C      -8.1507551606    -3.2181952392    -1.1868020202
  148      C      -3.5178883766     1.5857485271    -1.0174867754
  149      C      -6.5884515762    -3.2021705252     2.4766235241
  150      C      -2.8241225014    -0.5516343924    -2.7674445366
  151      C      -6.6043363636     0.7438986035    -2.4479896693
  152      C      -3.5764520731    -4.5423334784    -0.7129769606
  153      C      -2.5768662039    -3.7620368305    -0.1128442825
  154      C      -6.3021965373    -0.2817876885    -3.3199920522
  155      C      -3.3018508956    -1.6447818164     2.6348555560
  156      C      -2.3786554149     0.2092495922     0.6241724283
  157      C      -3.8392574057    -3.7460062122     1.9168198457
  158      C      -5.4695533433     0.9936897828     2.0324140920
  159      C      -8.1035336062    -0.8998282822    -2.1699778832
  160      C      -2.4642420572     0.6965272859    -0.6653873322
  161      C      -4.9260710569    -0.5695796369    -3.5698909449
  162      C      -5.5931163495    -2.4485386270     3.0488828609
  163      C      -6.6674850269    -2.6831230091    -3.1438841388
  164      C      -7.6612907933    -2.3731535202     2.2220693658
  165      C      -6.1136262446    -4.4689843530    -1.8486935313
  166      C      -7.7784199999     0.3800296369    -1.7190822745
  167      C      -7.1849522286    -1.3423681148    -3.1060819101
  168      C      -6.7657396555     1.1131342802     1.4926390867
  169      C      -5.0613053633    -0.1047387798     2.8311344933
  170      C      -4.7125432787    -4.8480293734     0.0361410490
  171      C      -8.6505335242    -1.8579921626    -1.1978554279
  172      C      -3.2130720272    -1.9193517771    -2.9958661250
  173      C      -2.6947038719    -3.4109182414     1.2199846715
  174      C      -3.7246912508    -4.0694891960    -2.0415282132
  175      C      -5.9946237481    -1.1572102098     3.0623263658
  176      C      -6.1876937625    -4.2975422057     1.5983410773
 ----------------------------------------------------------------
 Molecular Point Group                 C1    NOp =  1
 Largest Abelian Subgroup              C1    NOp =  1
 Nuclear Repulsion Energy = 34868.3380150757 hartrees
 There are      462 alpha and      462 beta electrons
 Requested basis set is 6-31G(d,p)
 There are 676 shells and 2360 basis functions

 Total QAlloc Memory Limit  20000 MB
 Mega-Array Size      4888 MB
 MEM_STATIC part      5000 MB
 A cutoff of  1.0D-08 yielded  38011 shell pairs
 There are    533569 function pairs
 
 -------------------------------------------------------
 OpenMP Integral Computing Module                       
 Release: version 1.0, May 2013, Q-Chem Inc. Pittsburgh 
 -------------------------------------------------------
 Integral Job Info:
 Integral job number is                      11
 Integral operator is                         1
 short-range coefficients                     0
 long-range coefficients              100000000
 Omega coefficients                           0
 if combine SR and LR in K                    0
 Integral screening is                        0
 Integral computing path is                   2
 max size of driver memory is            800000
 size of driver memory is                593474
 size of scratch memory is              2260544
 max col of scratch BK array               1296
 max len of scratch array in speh3          155
 max len of scratch index in speh4           18
 max int batch size is                      520
 min int batch size is                       52
 fixed nKL is                                52
 max L of basis functions is                  2
 order of int derivative is                   0
 number of shells is                        676
 number of basis is                        2360
 number of cartesian basis is              2360
 number of contracted shell pairs         38011
 number of primitive shell pairs         114708
 maxK2 (contraction) of shell pair           36
 max number of K2 of shell pair               1
 max number of CS2 of shell pair           7289
 max number of PS2 of shell pair          34626
 mem total for path MDJ                 1522344
 -------------------------------------------------------
 Smallest overlap matrix eigenvalue = 2.45E-04

 Scale SEOQF with 1.000000e-02/1.000000e-02/1.000000e-01

 Standard Electronic Orientation quadrupole field applied
 Nucleus-field energy     =    -0.0000001867 hartrees
 Guess from superposition of atomic densities
 Warning:  Energy on first SCF cycle will be non-variational
 A restricted hybrid HF-DFT SCF calculation will be
 performed using Pulay DIIS extrapolation
 Exchange:     0.2000 Hartree-Fock + 0.0800 Slater + 0.7200 B88
 Correlation:  0.1900 VWN1RPA + 0.8100 LYP
 Using SG-1 standard quadrature grid
 SCF converges when DIIS error is below 1.0E-05
 using 16 threads for integral computing 
 -------------------------------------------------------
 OpenMP BLAS3 based DFT computing Module                
 Release: version 1.0, May 2013, Q-Chem Inc. Pittsburgh 
 -------------------------------------------------------
 ---------------------------------------
  Cycle       Energy         DIIS Error
 ---------------------------------------
    1   -5858.1384949097      1.83E-02
    2   -5803.1146346944      1.29E-03
    3   -5802.2864171663      1.81E-03
    4   -5803.9877006798      6.36E-04
    5   -5804.2030465074      2.83E-04
    6   -5804.2499348088      1.31E-04
    7   -5804.2613483644      4.60E-05
    8   -5804.2623840410      2.69E-05
    9   -5804.2629016871      8.52E-06 Convergence criterion met
 ---------------------------------------
 SCF time:  CPU 7143.09 s  wall 833.76 s
 SCF   energy in the final basis set = -5804.2629016871
 Total energy in the final basis set = -5804.2629016871
 
 --------------------------------------------------------------
 
                    Orbital Energies (a.u.)
 --------------------------------------------------------------
 
 Alpha MOs
 -- Occupied --
-19.203 -19.182 -19.140 -19.129 -10.326 -10.313 -10.249 -10.248
-10.247 -10.246 -10.244 -10.242 -10.238 -10.238 -10.236 -10.234
-10.230 -10.229 -10.228 -10.227 -10.227 -10.225 -10.225 -10.225
-10.224 -10.223 -10.222 -10.222 -10.222 -10.222 -10.222 -10.222
-10.221 -10.221 -10.221 -10.221 -10.221 -10.221 -10.221 -10.221
-10.221 -10.220 -10.220 -10.220 -10.220 -10.220 -10.220 -10.220
-10.219 -10.219 -10.219 -10.219 -10.219 -10.218 -10.218 -10.218
-10.218 -10.218 -10.218 -10.218 -10.218 -10.218 -10.217 -10.217
-10.217 -10.217 -10.217 -10.217 -10.216 -10.216 -10.216 -10.216
-10.216 -10.216 -10.216 -10.216 -10.216 -10.216 -10.215 -10.215
-10.215 -10.215 -10.215 -10.215 -10.215 -10.214 -10.214 -10.214
-10.214 -10.214 -10.214 -10.214 -10.214 -10.213 -10.213 -10.213
-10.213 -10.212 -10.212 -10.212 -10.212 -10.212 -10.212 -10.212
-10.212 -10.212 -10.212 -10.212 -10.211 -10.211 -10.211 -10.211
-10.211 -10.211 -10.211 -10.210 -10.210 -10.210 -10.210 -10.209
-10.209 -10.209 -10.209 -10.208 -10.208 -10.208 -10.208 -10.208
-10.208 -10.207 -10.207 -10.207 -10.207 -10.206 -10.206 -10.206
-10.205 -10.204 -10.204 -10.204 -10.203 -10.201 -10.199 -10.195
-10.194 -10.194 -10.193 -10.192  -1.118  -1.069  -1.002  -0.999
 -0.985  -0.982  -0.967  -0.966  -0.964  -0.963  -0.962  -0.958
 -0.933  -0.933  -0.932  -0.928  -0.927  -0.925  -0.924  -0.922
 -0.921  -0.918  -0.900  -0.893  -0.893  -0.891  -0.887  -0.883
 -0.875  -0.875  -0.856  -0.848  -0.845  -0.843  -0.842  -0.839
 -0.839  -0.832  -0.823  -0.822  -0.809  -0.803  -0.802  -0.798
 -0.798  -0.797  -0.796  -0.794  -0.791  -0.787  -0.784  -0.783
 -0.776  -0.773  -0.772  -0.768  -0.768  -0.766  -0.765  -0.763
 -0.753  -0.749  -0.747  -0.740  -0.736  -0.734  -0.720  -0.717
 -0.716  -0.716  -0.714  -0.713  -0.712  -0.712  -0.708  -0.707
 -0.707  -0.706  -0.705  -0.704  -0.702  -0.701  -0.675  -0.674
 -0.661  -0.660  -0.657  -0.655  -0.649  -0.646  -0.635  -0.631
 -0.630  -0.628  -0.626  -0.625  -0.623  -0.622  -0.620  -0.618
 -0.618  -0.616  -0.615  -0.614  -0.612  -0.611  -0.610  -0.609
 -0.607  -0.606  -0.605  -0.600  -0.575  -0.565  -0.565  -0.563
 -0.562  -0.561  -0.560  -0.559  -0.557  -0.555  -0.553  -0.550
 -0.537  -0.535  -0.534  -0.533  -0.530  -0.530  -0.529  -0.527
 -0.526  -0.522  -0.522  -0.520  -0.518  -0.517  -0.513  -0.511
 -0.509  -0.507  -0.502  -0.497  -0.495  -0.493  -0.492  -0.488
 -0.486  -0.485  -0.484  -0.482  -0.481  -0.480  -0.477  -0.476
 -0.475  -0.473  -0.471  -0.471  -0.469  -0.469  -0.467  -0.466
 -0.466  -0.465  -0.464  -0.463  -0.460  -0.459  -0.459  -0.458
 -0.457  -0.456  -0.456  -0.454  -0.453  -0.449  -0.448  -0.445
 -0.444  -0.442  -0.442  -0.440  -0.438  -0.437  -0.436  -0.434
 -0.432  -0.432  -0.430  -0.429  -0.428  -0.426  -0.425  -0.425
 -0.424  -0.423  -0.422  -0.421  -0.421  -0.420  -0.420  -0.419
 -0.418  -0.417  -0.416  -0.416  -0.415  -0.414  -0.414  -0.414
 -0.412  -0.411  -0.410  -0.407  -0.403  -0.400  -0.400  -0.398
 -0.396  -0.394  -0.392  -0.391  -0.391  -0.390  -0.388  -0.387
 -0.382  -0.378  -0.376  -0.373  -0.371  -0.369  -0.368  -0.367
 -0.364  -0.363  -0.363  -0.362  -0.361  -0.361  -0.360  -0.360
 -0.357  -0.357  -0.355  -0.354  -0.353  -0.353  -0.352  -0.352
 -0.351  -0.350  -0.349  -0.348  -0.347  -0.345  -0.345  -0.343
 -0.342  -0.341  -0.340  -0.339  -0.339  -0.337  -0.337  -0.334
 -0.334  -0.333  -0.331  -0.331  -0.330  -0.327  -0.326  -0.323
 -0.311  -0.310  -0.300  -0.293  -0.288  -0.286  -0.275  -0.273
 -0.272  -0.271  -0.270  -0.268  -0.267  -0.266  -0.264  -0.263
 -0.263  -0.261  -0.260  -0.259  -0.258  -0.257  -0.256  -0.255
 -0.249  -0.247  -0.244  -0.243  -0.226  -0.224  -0.217  -0.213
 -0.213  -0.208  -0.207  -0.203  -0.201  -0.197
 -- Virtual --
 -0.127  -0.124  -0.121  -0.117  -0.112  -0.106  -0.081  -0.078
 -0.076  -0.070  -0.063  -0.058  -0.055  -0.052  -0.025  -0.023
 -0.022  -0.021  -0.020  -0.019  -0.017  -0.016  -0.015  -0.014
 -0.014  -0.011  -0.009  -0.009  -0.006  -0.003   0.001   0.001
  0.003   0.004   0.031   0.036   0.041   0.041   0.044   0.045
  0.047   0.048   0.049   0.055   0.057   0.060   0.062   0.069
  0.071   0.071   0.080   0.081   0.083   0.087   0.088   0.090
  0.091   0.093   0.095   0.097   0.098   0.100   0.105   0.105
  0.108   0.109   0.110   0.110   0.116   0.118   0.119   0.121
  0.122   0.124   0.125   0.127   0.130   0.131   0.133   0.135
  0.135   0.140   0.140   0.146   0.149   0.151   0.152   0.154
  0.155   0.158   0.158   0.160   0.160   0.161   0.162   0.164
  0.167   0.167   0.172   0.173   0.175   0.176   0.178   0.179
  0.181   0.182   0.185   0.185   0.186   0.187   0.189   0.189
  0.193   0.195   0.196   0.196   0.197   0.200   0.201   0.204
  0.205   0.206   0.208   0.209   0.211   0.213   0.216   0.216
  0.218   0.219   0.220   0.221   0.223   0.224   0.225   0.226
  0.227   0.228   0.230   0.231   0.232   0.235   0.236   0.238
  0.239   0.240   0.245   0.246   0.250   0.252   0.254   0.257
  0.258   0.263   0.268   0.269   0.270   0.274   0.274   0.277
  0.280   0.281   0.282   0.284   0.292   0.301   0.302   0.303
  0.305   0.306   0.308   0.309   0.311   0.314   0.315   0.316
  0.317   0.320   0.323   0.325   0.327   0.328   0.332   0.334
  0.336   0.337   0.341   0.341   0.343   0.344   0.346   0.348
  0.354   0.355   0.359   0.365   0.366   0.377   0.380   0.381
  0.392   0.394   0.398   0.400   0.400   0.402   0.403   0.406
  0.406   0.409   0.411   0.412   0.415   0.417   0.420   0.422
  0.423   0.426   0.432   0.433   0.434   0.438   0.441   0.442
  0.445   0.446   0.448   0.451   0.454   0.456   0.460   0.460
  0.464   0.466   0.466   0.471   0.471   0.472   0.473   0.474
  0.474   0.475   0.477   0.479   0.480   0.481   0.481   0.482
  0.483   0.484   0.486   0.488   0.489   0.490   0.491   0.492
  0.494   0.496   0.497   0.499   0.500   0.501   0.501   0.502
  0.503   0.504   0.505   0.506   0.508   0.508   0.510   0.511
  0.512   0.513   0.513   0.514   0.515   0.515   0.516   0.517
  0.518   0.518   0.520   0.521   0.522   0.524   0.524   0.525
  0.526   0.527   0.528   0.529   0.529   0.530   0.531   0.531
  0.532   0.533   0.534   0.535   0.535   0.536   0.537   0.537
  0.538   0.539   0.540   0.542   0.542   0.543   0.544   0.544
  0.546   0.546   0.547   0.548   0.548   0.549   0.549   0.550
  0.551   0.551   0.552   0.553   0.553   0.554   0.554   0.555
  0.556   0.556   0.558   0.559   0.559   0.561   0.561   0.562
  0.563   0.563   0.564   0.565   0.566   0.566   0.567   0.569
  0.569   0.570   0.572   0.573   0.574   0.574   0.574   0.575
  0.576   0.577   0.577   0.579   0.580   0.581   0.582   0.583
  0.584   0.585   0.586   0.587   0.588   0.589   0.590   0.590
  0.591   0.591   0.592   0.593   0.594   0.595   0.595   0.597
  0.597   0.599   0.599   0.600   0.602   0.602   0.603   0.606
  0.606   0.607   0.609   0.610   0.611   0.612   0.614   0.615
  0.616   0.617   0.618   0.619   0.619   0.620   0.620   0.621
  0.624   0.626   0.626   0.627   0.628   0.629   0.631   0.633
  0.634   0.635   0.636   0.636   0.637   0.637   0.638   0.639
  0.641   0.641   0.642   0.643   0.645   0.646   0.647   0.649
  0.649   0.650   0.651   0.653   0.653   0.654   0.655   0.656
  0.657   0.658   0.659   0.660   0.661   0.661   0.662   0.663
  0.663   0.664   0.665   0.665   0.666   0.667   0.669   0.670
  0.671   0.672   0.672   0.673   0.673   0.676   0.678   0.679
  0.679   0.680   0.682   0.682   0.684   0.685   0.687   0.688
  0.690   0.691   0.692   0.693   0.694   0.695   0.695   0.697
  0.697   0.698   0.700   0.700   0.701   0.702   0.703   0.705
  0.706   0.706   0.708   0.710   0.711   0.711   0.713   0.714
  0.715   0.716   0.717   0.719   0.720   0.722   0.723   0.724
  0.724   0.726   0.728   0.729   0.730   0.732   0.733   0.734
  0.735   0.736   0.737   0.740   0.741   0.742   0.743   0.745
  0.748   0.750   0.751   0.753   0.754   0.756   0.756   0.757
  0.758   0.759   0.760   0.763   0.764   0.765   0.765   0.766
  0.767   0.768   0.769   0.771   0.773   0.775   0.777   0.777
  0.780   0.781   0.782   0.783   0.784   0.785   0.787   0.789
  0.790   0.790   0.792   0.793   0.794   0.795   0.796   0.796
  0.798   0.799   0.800   0.802   0.803   0.803   0.804   0.805
  0.805   0.807   0.808   0.808   0.809   0.810   0.810   0.812
  0.813   0.814   0.814   0.815   0.816   0.816   0.817   0.818
  0.818   0.819   0.820   0.821   0.822   0.823   0.824   0.825
  0.826   0.826   0.828   0.829   0.830   0.832   0.833   0.834
  0.837   0.837   0.840   0.842   0.843   0.846   0.847   0.851
  0.852   0.855   0.857   0.858   0.859   0.862   0.865   0.870
  0.872   0.880   0.881   0.883   0.887   0.887   0.892   0.895
  0.897   0.898   0.901   0.903   0.904   0.907   0.909   0.910
  0.913   0.914   0.914   0.918   0.920   0.923   0.924   0.927
  0.929   0.931   0.932   0.933   0.935   0.935   0.937   0.939
  0.939   0.943   0.945   0.946   0.947   0.950   0.952   0.953
  0.954   0.957   0.959   0.962   0.965   0.967   0.969   0.972
  0.975   0.977   0.979   0.984   0.985   0.985   0.987   0.989
  0.991   0.995   0.996   0.997   1.000   1.001   1.003   1.004
  1.006   1.008   1.011   1.013   1.015   1.017   1.018   1.018
  1.022   1.024   1.026   1.027   1.028   1.029   1.031   1.032
  1.033   1.037   1.038   1.039   1.040   1.042   1.043   1.045
  1.047   1.051   1.053   1.054   1.054   1.057   1.058   1.059
  1.061   1.063   1.064   1.066   1.069   1.070   1.073   1.074
  1.077   1.077   1.078   1.079   1.082   1.084   1.085   1.085
  1.087   1.089   1.091   1.093   1.094   1.095   1.096   1.097
  1.099   1.099   1.103   1.107   1.111   1.111   1.112   1.114
  1.116   1.119   1.121   1.122   1.124   1.125   1.127   1.128
  1.132   1.133   1.135   1.137   1.141   1.142   1.144   1.147
  1.148   1.151   1.152   1.155   1.156   1.159   1.161   1.163
  1.164   1.166   1.168   1.169   1.170   1.171   1.172   1.173
  1.174   1.175   1.177   1.178   1.180   1.182   1.183   1.186
  1.188   1.190   1.194   1.196   1.198   1.200   1.201   1.203
  1.205   1.207   1.208   1.211   1.216   1.218   1.221   1.225
  1.227   1.231   1.232   1.235   1.237   1.239   1.241   1.246
  1.247   1.250   1.254   1.257   1.258   1.259   1.261   1.264
  1.266   1.267   1.269   1.271   1.274   1.277   1.277   1.279
  1.281   1.284   1.285   1.287   1.290   1.293   1.295   1.295
  1.298   1.299   1.303   1.305   1.307   1.309   1.310   1.315
  1.315   1.318   1.322   1.324   1.325   1.327   1.328   1.334
  1.336   1.338   1.340   1.343   1.344   1.346   1.347   1.348
  1.350   1.352   1.355   1.356   1.357   1.360   1.364   1.365
  1.366   1.368   1.371   1.374   1.377   1.380   1.384   1.385
  1.387   1.390   1.393   1.394   1.395   1.399   1.401   1.403
  1.406   1.409   1.411   1.414   1.417   1.419   1.420   1.423
  1.426   1.429   1.431   1.433   1.436   1.439   1.443   1.445
  1.449   1.450   1.453   1.457   1.458   1.459   1.463   1.463
  1.464   1.466   1.469   1.471   1.472   1.474   1.477   1.478
  1.481   1.484   1.485   1.487   1.489   1.490   1.495   1.496
  1.498   1.502   1.504   1.507   1.508   1.511   1.515   1.516
  1.518   1.520   1.524   1.527   1.529   1.532   1.533   1.535
  1.541   1.543   1.545   1.548   1.549   1.553   1.553   1.557
  1.560   1.562   1.564   1.566   1.567   1.569   1.570   1.575
  1.577   1.578   1.580   1.583   1.588   1.589   1.594   1.594
  1.596   1.599   1.602   1.603   1.605   1.609   1.614   1.617
  1.622   1.627   1.628   1.631   1.638   1.640   1.643   1.645
  1.646   1.647   1.651   1.656   1.659   1.662   1.666   1.667
  1.673   1.678   1.678   1.683   1.684   1.688   1.690   1.693
  1.697   1.697   1.699   1.701   1.702   1.707   1.708   1.714
  1.715   1.717   1.719   1.723   1.723   1.725   1.726   1.728
  1.731   1.732   1.734   1.736   1.738   1.740   1.743   1.745
  1.746   1.748   1.749   1.751   1.753   1.754   1.756   1.757
  1.760   1.761   1.762   1.763   1.765   1.767   1.768   1.769
  1.770   1.771   1.774   1.775   1.775   1.776   1.777   1.777
  1.779   1.780   1.783   1.784   1.784   1.786   1.787   1.788
  1.788   1.791   1.792   1.793   1.794   1.797   1.798   1.800
  1.800   1.800   1.802   1.802   1.804   1.805   1.806   1.809
  1.811   1.812   1.814   1.815   1.817   1.821   1.822   1.824
  1.827   1.829   1.830   1.831   1.832   1.833   1.836   1.838
  1.840   1.842   1.843   1.845   1.847   1.849   1.851   1.853
  1.854   1.855   1.857   1.863   1.863   1.867   1.867   1.868
  1.870   1.873   1.875   1.875   1.875   1.877   1.881   1.882
  1.882   1.889   1.891   1.895   1.897   1.899   1.902   1.906
  1.908   1.909   1.910   1.911   1.915   1.917   1.919   1.921
  1.922   1.924   1.926   1.928   1.930   1.933   1.935   1.936
  1.938   1.940   1.941   1.944   1.945   1.946   1.949   1.953
  1.954   1.956   1.957   1.958   1.960   1.962   1.963   1.966
  1.968   1.971   1.974   1.975   1.979   1.980   1.980   1.981
  1.982   1.984   1.986   1.987   1.990   1.991   1.992   1.994
  1.994   1.995   1.997   1.998   1.998   1.999   2.001   2.003
  2.004   2.006   2.006   2.009   2.009   2.010   2.013   2.014
  2.014   2.016   2.017   2.018   2.020   2.021   2.022   2.023
  2.025   2.026   2.027   2.030   2.034   2.035   2.035   2.035
  2.036   2.038   2.039   2.039   2.041   2.042   2.044   2.045
  2.045   2.046   2.047   2.049   2.051   2.051   2.052   2.053
  2.056   2.058   2.059   2.059   2.061   2.063   2.063   2.064
  2.065   2.067   2.068   2.069   2.071   2.072   2.072   2.074
  2.075   2.078   2.080   2.080   2.083   2.084   2.085   2.085
  2.086   2.088   2.090   2.094   2.096   2.097   2.099   2.100
  2.104   2.105   2.106   2.111   2.111   2.113   2.119   2.120
  2.122   2.124   2.125   2.130   2.133   2.136   2.139   2.143
  2.144   2.147   2.148   2.150   2.156   2.158   2.163   2.163
  2.172   2.174   2.179   2.186   2.190   2.192   2.196   2.203
  2.205   2.208   2.209   2.210   2.215   2.218   2.223   2.225
  2.227   2.230   2.232   2.233   2.237   2.239   2.242   2.243
  2.248   2.251   2.252   2.256   2.256   2.260   2.263   2.264
  2.267   2.269   2.271   2.274   2.274   2.277   2.279   2.281
  2.281   2.282   2.284   2.288   2.289   2.290   2.292   2.297
  2.299   2.303   2.305   2.309   2.310   2.310   2.317   2.318
  2.320   2.324   2.325   2.326   2.327   2.332   2.336   2.337
  2.338   2.339   2.342   2.343   2.344   2.349   2.349   2.354
  2.356   2.358   2.361   2.362   2.364   2.364   2.366   2.368
  2.368   2.370   2.372   2.374   2.376   2.377   2.379   2.381
  2.383   2.385   2.387   2.388   2.390   2.391   2.393   2.395
  2.397   2.398   2.399   2.400   2.402   2.404   2.405   2.406
  2.408   2.409   2.411   2.416   2.416   2.419   2.420   2.421
  2.423   2.427   2.429   2.430   2.432   2.433   2.437   2.440
  2.443   2.445   2.448   2.450   2.452   2.456   2.457   2.458
  2.460   2.461   2.464   2.465   2.468   2.469   2.470   2.472
  2.477   2.479   2.480   2.482   2.486   2.487   2.489   2.490
  2.493   2.496   2.497   2.498   2.500   2.501   2.504   2.507
  2.510   2.511   2.511   2.512   2.518   2.519   2.521   2.521
  2.524   2.528   2.530   2.531   2.534   2.535   2.539   2.539
  2.544   2.545   2.546   2.552   2.554   2.554   2.555   2.562
  2.564   2.567   2.570   2.572   2.574   2.578   2.583   2.587
  2.588   2.589   2.591   2.594   2.597   2.600   2.600   2.603
  2.604   2.605   2.608   2.609   2.609   2.613   2.615   2.616
  2.620   2.622   2.623   2.628   2.630   2.631   2.633   2.634
  2.635   2.637   2.640   2.640   2.641   2.643   2.647   2.648
  2.650   2.651   2.651   2.652   2.655   2.658   2.660   2.661
  2.662   2.663   2.666   2.669   2.669   2.671   2.672   2.674
  2.675   2.678   2.680   2.681   2.682   2.683   2.684   2.689
  2.691   2.693   2.695   2.698   2.699   2.700   2.703   2.705
  2.709   2.710   2.711   2.715   2.716   2.719   2.722   2.723
  2.723   2.727   2.729   2.734   2.735   2.740   2.741   2.743
  2.746   2.747   2.750   2.752   2.753   2.757   2.760   2.761
  2.763   2.764   2.767   2.769   2.770   2.772   2.775   2.777
  2.779   2.781   2.781   2.783   2.788   2.793   2.794   2.795
  2.798   2.803   2.805   2.809   2.809   2.812   2.815   2.817
  2.819   2.823   2.829   2.832   2.836   2.836   2.839   2.841
  2.842   2.846   2.850   2.852   2.855   2.856   2.859   2.862
  2.863   2.865   2.867   2.868   2.872   2.874   2.875   2.877
  2.879   2.881   2.882   2.885   2.887   2.887   2.888   2.890
  2.891   2.893   2.896   2.898   2.900   2.900   2.903   2.905
  2.906   2.908   2.911   2.912   2.914   2.917   2.917   2.919
  2.920   2.922   2.924   2.926   2.928   2.930   2.932   2.935
  2.935   2.937   2.940   2.945   2.947   2.949   2.953   2.953
  2.956   2.957   2.963   2.964   2.967   2.970   2.971   2.974
  2.979   2.984   2.987   2.989   2.991   2.996   2.999   3.002
  3.004   3.004   3.010   3.010   3.015   3.016   3.019   3.023
  3.026   3.028   3.029   3.032   3.037   3.041   3.042   3.045
  3.046   3.050   3.053   3.054   3.058   3.061   3.063   3.065
  3.067   3.071   3.076   3.082   3.084   3.088   3.097   3.105
  3.110   3.115   3.127   3.131   3.138   3.139   3.144   3.157
  3.158   3.161   3.162   3.168   3.179   3.181   3.190   3.192
  3.193   3.194   3.196   3.211   3.215   3.225   3.234   3.241
  3.242   3.245   3.248   3.253   3.256   3.261   3.267   3.271
  3.280   3.290   3.305   3.308   3.309   3.318   3.320   3.324
  3.327   3.333   3.344   3.348   3.357   3.368   3.380   3.383
  3.388   3.394   3.395   3.398   3.408   3.420   3.421   3.429
  3.443   3.464   3.466   3.471   3.474   3.477   3.487   3.500
  3.502   3.510   3.514   3.516   3.525   3.526   3.534   3.544
  3.548   3.556   3.573   3.575   3.580   3.583   3.588   3.591
  3.602   3.624   3.670   3.696   3.828   3.880   3.977   4.036
  4.067   4.068   4.075   4.077   4.080   4.084   4.088   4.089
  4.098   4.102   4.104   4.106   4.108   4.111   4.116   4.118
  4.127   4.132   4.132   4.135   4.137   4.140   4.143   4.147
  4.155   4.158   4.159   4.165   4.170   4.174   4.176   4.180
  4.183   4.190   4.200   4.201   4.208   4.218   4.233   4.239
  4.240   4.244   4.248   4.249   4.252   4.257   4.260   4.264
  4.268   4.273   4.275   4.280   4.283   4.289   4.294   4.298
  4.305   4.309   4.325   4.338   4.362   4.377   4.386   4.387
  4.391   4.394   4.401   4.402   4.409   4.412   4.414   4.416
  4.421   4.423   4.424   4.430   4.442   4.452   4.462   4.477
  4.483   4.487   4.491   4.510   4.525   4.529   4.545   4.549
  4.560   4.569   4.597   4.603   4.615   4.621   4.625   4.631
  4.639   4.656   4.665   4.672   4.690   4.692   4.695   4.697
  4.698   4.706   4.710   4.720   4.738   4.739   4.801   4.813
  4.832   4.845   4.847   4.851   4.863   4.873   4.883   4.901
  4.910   4.914   4.948   4.958   4.964   4.969   4.977   4.979
  4.985   4.989   4.995   4.998   5.150   5.165   5.174   5.178
  5.188   5.204   5.236   5.243   5.305   5.310   5.336   5.342
  5.361   5.366
 --------------------------------------------------------------
 
          Ground-State Mulliken Net Atomic Charges

     Atom                 Charge (a.u.)
  ----------------------------------------
      1 O                    -0.420339
      2 C                    -0.093662
      3 H                     0.136488
      4 H                     0.127250
      5 H                     0.127201
      6 O                    -0.498657
      7 C                     0.578111
      8 C                    -0.244716
      9 H                     0.129113
     10 H                     0.114727
     11 C                    -0.186054
     12 H                     0.127691
     13 H                     0.106847
     14 C                    -0.176120
     15 H                     0.108542
     16 H                     0.112446
     17 C                     0.000785
     18 C                     0.082327
     19 C                    -0.088546
     20 H                     0.096473
     21 C                    -0.098399
     22 H                     0.096130
     23 C                    -0.085489
     24 H                     0.096401
     25 C                    -0.104725
     26 H                     0.089633
     27 C                    -0.095361
     28 H                     0.100409
     29 C                     0.005353
     30 C                    -0.006094
     31 C                    -0.009484
     32 C                    -0.002314
     33 C                    -0.009550
     34 C                    -0.018898
     35 C                     0.013558
     36 C                    -0.006482
     37 C                     0.009328
     38 C                    -0.018717
     39 C                    -0.110160
     40 C                     0.013191
     41 C                    -0.009451
     42 C                    -0.028470
     43 C                     0.017804
     44 C                     0.011142
     45 C                    -0.111328
     46 C                     0.008823
     47 C                    -0.018069
     48 C                    -0.009522
     49 C                     0.004641
     50 C                    -0.019910
     51 C                    -0.011931
     52 C                    -0.004550
     53 C                     0.035670
     54 C                     0.001343
     55 C                    -0.018537
     56 C                     0.011435
     57 C                     0.006189
     58 C                    -0.011334
     59 C                     0.034121
     60 C                     0.008518
     61 C                    -0.010473
     62 C                    -0.028479
     63 C                    -0.023347
     64 C                    -0.012925
     65 C                    -0.003493
     66 C                    -0.016172
     67 C                     0.004858
     68 C                    -0.004367
     69 C                    -0.028096
     70 C                     0.040079
     71 C                     0.008597
     72 C                     0.075049
     73 C                     0.013700
     74 C                     0.016506
     75 C                    -0.015817
     76 C                    -0.002977
     77 C                     0.024974
     78 C                     0.000200
     79 C                    -0.004283
     80 C                    -0.005171
     81 C                     0.026714
     82 C                     0.009638
     83 C                    -0.013534
     84 C                     0.022744
     85 C                     0.006958
     86 C                     0.022844
     87 C                    -0.009598
     88 C                     0.017635
     89 O                    -0.501684
     90 C                    -0.077196
     91 H                     0.132376
     92 H                     0.132587
     93 H                     0.130871
     94 O                    -0.464690
     95 C                     0.592691
     96 C                    -0.271640
     97 H                     0.131015
     98 H                     0.137055
     99 C                    -0.184127
    100 H                     0.141491
    101 H                     0.114322
    102 C                    -0.186192
    103 H                     0.117175
    104 H                     0.116594
    105 C                     0.018508
    106 C                     0.108340
    107 C                    -0.115688
    108 H                     0.087857
    109 C                    -0.086016
    110 H                     0.094641
    111 C                    -0.080841
    112 H                     0.087434
    113 C                    -0.082450
    114 H                     0.090538
    115 C                    -0.125957
    116 H                     0.089679
    117 C                     0.008652
    118 C                     0.010468
    119 C                     0.002100
    120 C                    -0.036618
    121 C                    -0.005113
    122 C                    -0.025746
    123 C                    -0.030752
    124 C                     0.009711
    125 C                     0.016419
    126 C                     0.045909
    127 C                    -0.088800
    128 C                     0.024680
    129 C                    -0.003118
    130 C                     0.018935
    131 C                    -0.007839
    132 C                     0.007991
    133 C                    -0.095669
    134 C                     0.001635
    135 C                    -0.022872
    136 C                     0.018590
    137 C                    -0.020731
    138 C                     0.015425
    139 C                    -0.014905
    140 C                     0.011078
    141 C                     0.034996
    142 C                    -0.002584
    143 C                     0.004683
    144 C                     0.046562
    145 C                     0.029484
    146 C                    -0.002283
    147 C                    -0.005703
    148 C                     0.010836
    149 C                    -0.004701
    150 C                    -0.032535
    151 C                    -0.012072
    152 C                    -0.006277
    153 C                    -0.013537
    154 C                    -0.016270
    155 C                    -0.030572
    156 C                    -0.001369
    157 C                     0.025785
    158 C                     0.031146
    159 C                    -0.012061
    160 C                     0.003931
    161 C                    -0.011007
    162 C                     0.004274
    163 C                     0.024401
    164 C                    -0.023243
    165 C                    -0.014592
    166 C                    -0.013550
    167 C                     0.011944
    168 C                    -0.024590
    169 C                     0.032703
    170 C                    -0.003040
    171 C                    -0.024732
    172 C                     0.007626
    173 C                     0.000599
    174 C                     0.004602
    175 C                    -0.002382
    176 C                    -0.009178
  ----------------------------------------
  Sum of atomic charges =     0.000000

 -----------------------------------------------------------------
                    Cartesian Multipole Moments
 -----------------------------------------------------------------
    Charge (ESU x 10^10)
                 0.0000
    Dipole Moment (Debye)
         X       2.3599      Y       1.5475      Z       1.1433
       Tot       3.0448
    Quadrupole Moments (Debye-Ang)
        XX    -805.9040     XY       8.5184     YY    -820.5460
        XZ      -5.6905     YZ       0.6451     ZZ    -800.8544
    Octopole Moments (Debye-Ang^2)
       XXX     401.1619    XXY     220.8029    XYY    -148.2588
       YYY     175.6371    XXZ      61.3976    XYZ     -63.2481
       YYZ       8.9712    XZZ      67.8675    YZZ      21.2928
       ZZZ      33.8025
    Hexadecapole Moments (Debye-Ang^3)
      XXXX -136806.2873   XXXY   -1930.2116   XXYY  -34104.4113
      XYYY    2125.3107   YYYY  -56707.4913   XXXZ    -348.7638
      XXYZ     257.2356   XYYZ    -438.1114   YYYZ    -374.5668
      XXZZ  -25919.0225   XYZZ    -771.4823   YYZZ  -11848.0437
      XZZZ    -212.2923   YZZZ    -103.9591   ZZZZ  -18478.6021
 -----------------------------------------------------------------
Archival summary:
1\1\mn366\SP\ProcedureUnspecified\6-31G**\428\afmv_a\SatOct613:29:032018SatOct613:29:032018\0\\#,ProcedureUnspecified,6-31G**,\\0,1\C\C,1,1.33962\C,2,1.3905,1,110.39\C,3,1.37852,2,118.87,1,-144.03,0\C,3,1.38345,2,107.935,1,-1.93441,0\C,5,1.38708,3,106.874,2,0.148715,0\C,5,1.41304,3,118.161,2,-142.42,0\C,7,1.39312,5,122.22,3,-2.66435,0\C,2,1.41535,1,121.455,3,-145.526,0\C,9,1.39437,2,121.609,1,-2.91851,0\C,9,1.39677,2,122.937,1,147.1,0\C,11,1.3945,9,107.149,2,-146.247,0\C,12,1.37957,11,119.73,9,134.681,0\C,13,1.38782,12,124.723,11,-135.333,0\C,14,1.39486,13,116.484,12,1.55209,0\C,15,1.38643,14,119.507,13,135.143,0\C,13,1.39593,12,119.345,11,5.25629,0\C,10,1.39708,9,107.469,2,147.143,0\C,11,1.39887,9,118.264,2,-3.10138,0\C,17,1.40009,13,122.579,12,-0.913597,0\C,20,1.38881,17,119.646,13,-133.263,0\C,16,1.40408,15,123.017,14,3.46956,0\C,22,1.39132,16,117.727,15,-2.54268,0\C,22,1.3929,16,122.737,15,-140.93,0\C,24,1.37049,22,121.177,16,-7.31663,0\C,25,1.39034,24,117.794,22,10.7267,0\C,26,1.38308,25,110.852,24,138.964,0\C,27,1.37076,26,111.282,25,-0.421821,0\C,27,1.40045,26,118.25,25,-144.062,0\C,29,1.4038,27,126.524,26,142.424,0\C,30,1.39462,29,109.957,27,-8.48697,0\C,31,1.36427,30,125.641,29,4.43984,0\C,32,1.37928,31,108.225,30,-146.373,0\C,33,1.38926,32,108.254,31,5.19359,0\C,16,1.40528,15,112.151,14,-143.695,0\C,35,1.40563,16,105.298,15,2.52038,0\C,36,1.39004,35,114.998,16,137.16,0\C,37,1.39944,36,119.134,35,-144.754,0\C,38,1.3945,37,104.036,36,152.782,0\C,18,1.40725,10,117.461,9,-135.875,0\C,14,1.4091,13,110.999,12,142.618,0\C,23,1.40992,22,108.171,16,-143.51,0\C,41,1.41062,14,106.477,13,2.73348,0\C,42,1.4109,23,117.997,22,139.626,0\C,44,1.40305,42,119.255,23,-140.336,0\C,45,1.36798,44,103.805,42,144.79,0\C,46,1.37319,45,113.13,44,3.52629,0\C,47,1.39633,46,106.335,45,-2.25102,0\C,45,1.40846,44,119.92,42,7.86733,0\C,49,1.39119,45,121.384,44,-11.1244,0\C,21,1.41125,20,112.901,17,140.463,0\C,42,1.41583,23,109.28,22,-1.72249,0\C,34,1.4207,33,109.018,32,-4.49627,0\C,33,1.42175,32,120.856,31,148.024,0\C,49,1.42194,45,123.304,44,134.896,0\C,55,1.37963,49,116.984,45,-2.33497,0\C,56,1.36991,55,119.491,49,-139.054,0\C,56,1.40669,55,120.165,49,1.29135,0\C,25,1.49576,24,122.761,22,147.2,0\C,59,1.51332,25,124.661,24,67.3285,0\C,60,1.4791,59,118.541,25,7.91043,0\C,61,1.40353,60,117.699,59,-129.708,0\H,62,1.086,61,122.354,60,0.287396,0\C,61,1.42753,60,118.681,59,50.3035,0\H,64,1.08627,61,117.421,60,0.532805,0\C,64,1.38633,61,120.368,60,-179.577,0\H,66,1.0861,64,122.028,61,179.727,0\C,62,1.43679,61,115.483,60,179.971,0\H,68,1.08616,62,119.734,61,-172.666,0\C,68,1.43768,62,122.703,61,-0.412845,0\H,70,1.08623,68,120.381,62,-176.241,0\C,50,1.51686,49,109.282,45,155.85,0\C,60,1.56631,59,120.803,25,150.417,0\H,73,1.09732,60,109.391,59,167.174,0\H,73,1.09758,60,109.026,59,55.0446,0\C,73,1.55046,60,115.057,59,-69.7785,0\H,76,1.09654,73,112.518,60,60.6119,0\H,76,1.09704,73,113.471,60,-58.277,0\C,76,1.5512,73,107.852,60,-173.687,0\H,79,1.09675,76,102.025,73,74.2283,0\H,79,1.09763,76,113.914,73,-40.6526,0\C,79,1.47466,76,119.16,73,-167.354,0\O,82,1.24497,79,122.609,76,-83.8876,0\O,82,1.31077,79,108.994,76,93.5783,0\C,84,1.40972,82,119.59,79,-165.819,0\H,85,1.09658,84,109.128,82,62.2237,0\H,85,1.09709,84,109.339,82,-173.541,0\H,85,1.09711,84,108.598,82,-51.7172,0\H,19,2.59319,11,76.962,9,65.1458,0\C,89,1.09666,19,130.251,11,139.481,0\H,90,1.0974,89,103.625,19,53.6688,0\C,90,1.55923,89,109.473,19,-59.7693,0\O,92,1.23112,90,123.099,89,-142.136,0\O,92,1.41621,90,113.955,89,29.5155,0\C,94,1.46684,92,124.829,90,-175.598,0\H,95,1.09662,94,106.228,92,69.2264,0\H,95,1.09665,94,105.283,92,-45.1721,0\H,95,1.09801,94,112.281,92,-166.771,0\C,90,1.56911,89,110.614,19,171.073,0\H,99,1.09694,90,108.923,89,66.5034,0\H,99,1.09737,90,105.423,89,-178.032,0\C,99,1.5558,90,108.302,89,-55.7292,0\H,102,1.09729,99,120.8,90,46.4172,0\H,102,1.09736,99,101.624,90,-66.2303,0\C,102,1.56135,99,108.744,90,176.114,0\C,105,1.50277,102,117.461,99,57.4827,0\C,106,1.36086,105,126.917,102,-86.133,0\H,107,1.08541,106,115.144,105,-12.2361,0\C,107,1.38786,106,123.922,105,176.028,0\H,109,1.08616,107,121.752,106,168.785,0\C,109,1.39433,107,119.143,106,-0.617702,0\H,111,1.08615,109,120.033,107,173.715,0\C,111,1.36928,109,120.567,107,-1.65844,0\H,113,1.08618,111,118.121,109,177.91,0\C,113,1.42442,111,118.663,109,4.86875,0\H,115,1.08587,113,115.089,111,172.94,0\C,105,1.51454,102,119.697,99,-88.3272,0\C,117,1.51923,105,60.9504,102,-106.525,0\C,118,1.49304,117,117.308,105,118.84,0\C,119,1.41902,118,108.979,117,138.72,0\C,120,1.35395,119,111.187,118,-8.90323,0\C,120,1.40854,119,122.855,118,-153.55,0\C,122,1.39853,120,121.196,119,138.476,0\C,123,1.40736,122,109.022,120,-138.542,0\C,124,1.35155,123,117.649,122,146.782,0\C,124,1.38126,123,110.312,122,-1.37567,0\C,126,1.38333,124,119.675,123,141.028,0\C,125,1.38896,124,125.212,123,-2.14988,0\C,128,1.39514,125,113.12,124,-139.696,0\C,129,1.39899,128,123.32,125,142.425,0\C,125,1.40083,124,117.101,123,-138.568,0\C,131,1.39475,125,122.104,124,-5.5052,0\C,130,1.40394,129,116.839,128,-133.531,0\C,130,1.40916,129,119.53,128,-2.40403,0\C,132,1.41796,131,119.417,125,138.291,0\C,135,1.3429,132,117.533,131,7.19207,0\C,135,1.39847,132,110.199,131,-137.863,0\C,137,1.36408,135,121.249,132,139.359,0\C,137,1.36472,135,107.739,132,2.04587,0\C,139,1.3844,137,121.921,135,140.655,0\C,140,1.3911,139,118.723,137,-136.57,0\C,141,1.397,140,123.891,139,-6.1828,0\C,138,1.4068,137,117.661,135,5.65426,0\C,143,1.40195,138,121.529,137,-2.518,0\C,144,1.3631,143,116.006,138,-136.123,0\C,145,1.41166,144,108.171,143,140.543,0\C,146,1.40899,145,107.489,144,-0.151922,0\C,147,1.37696,146,117.786,145,-144.351,0\C,121,1.41816,120,107.675,119,-1.95368,0\C,149,1.40916,121,123.106,120,-148.522,0\C,150,1.40047,149,120.868,121,135.553,0\C,151,1.38829,150,108.443,149,-134.761,0\C,152,1.34499,151,118.115,150,146.511,0\C,153,1.39536,152,119.551,151,-142.979,0\C,154,1.38417,153,110.926,152,138.951,0\C,155,1.39637,154,106.278,153,3.86148,0\C,156,1.37975,155,109.231,154,-5.117,0\C,157,1.36547,156,121.171,155,-141.073,0\C,158,1.38605,157,120.158,156,-0.840533,0\C,152,1.3981,151,108.905,150,-4.44285,0\C,158,1.40058,157,119.497,156,145.967,0\C,159,1.4066,158,108.362,157,151.84,0\C,160,1.40798,152,118.411,151,146.443,0\C,159,1.41199,158,121.288,157,-0.714948,0\C,164,1.35573,159,118.685,158,141.833,0\C,164,1.37458,159,117.18,158,4.11017,0\C,165,1.40582,164,118.66,159,-4.45386,0\C,167,1.40259,165,123.254,164,8.5133,0\C,168,1.38121,167,107.862,165,-141.68,0\C,121,1.42556,120,123.702,119,-146.187,0\C,170,1.35237,121,120.595,120,1.04433,0\C,171,1.37337,170,108.237,121,142.982,0\C,172,1.37951,171,108.104,170,4.36777,0\C,170,1.38999,121,119.734,120,144.911,0\C,174,1.38339,170,121.26,121,-4.76698,0\C,163,1.43078,160,118.432,152,1.93365,0\\\@

 Total job time:  850.41s(wall), 7172.23s(cpu) 
 Sat Oct  6 13:29:03 2018

        *************************************************************
        *                                                           *
        *  Thank you very much for using Q-Chem.  Have a nice day.  *
        *                                                           *
        *************************************************************


