
Running Job 1 of 1 ./9/2.qcin
qchem ./9/2.qcin_144259.0 /tmpu/cab_g/afmv_a/scratch_qchem/qchem144259/ 1
/tmpu/appuserlic/qchem4.4/serial-multicore/exe/qcprog.exe_s ./9/2.qcin_144259.0 /tmpu/cab_g/afmv_a/scratch_qchem/qchem144259/
Check license passed

                  Welcome to Q-Chem
     A Quantum Leap Into The Future Of Chemistry


 Q-Chem 4.4, Q-Chem, Inc., Pleasanton, CA (2016)

 Y. Shao,  Z. Gan,  E. Epifanovsky,  A. T. B. Gilbert,  M. Wormit,  
 J. Kussmann,  A. W. Lange,  A. Behn,  J. Deng,  X. Feng,  D. Ghosh,  
 M. Goldey,  P. R. Horn,  L. D. Jacobson,  I. Kaliman,  F. Rob,  
 R. Z. Khaliullin,  T. Kus,  A. Landau,  J. Liu,  E. I. Proynov,  Y. M. Rhee,  
 R. M. Richard,  M. A. Rohrdanz,  R. P. Steele,  E. J. Sundstrom,  
 H. L. Woodcock III,  P. M. Zimmerman,  D. Zuev,  B. Albrecht,  E. Alguire,  
 B. Austin,  S. A. Baeppler,  G. J. O. Beran,  Y. A. Bernard,  E. Berquist,  
 K. Brandhorst,  K. B. Bravaya,  S. T. Brown,  D. Casanova,  C.-M. Chang,  
 Y. Chen,  S. H. Chien,  K. D. Closser,  M. P. Coons,  D. L. Crittenden,  
 S. Dasgupta,  M. Diedenhofen,  R. A. DiStasio Jr.,  H. Do,  A. D. Dutoi,  
 R. G. Edgar,  P.-T. Fang,  S. Fatehi,  Q. Feng,  L. Fusti-Molnar,  
 A. Ghysels,  A. Golubeva-Zadorozhnaya,  J. Gomes,  A. Gunina,  
 M. W. D. Hanson-Heine,  P. H. P. Harbach,  A. W. Hauser,  J. E. Herr,  
 E. G. Hohenstein,  Z. C. Holden,  K. Hui,  T.-C. Jagau,  H. Ji,  B. Kaduk,  
 K. Khistyaev,  Jaehoon Kim,  Jihan Kim,  R. A. King,  P. Klunzinger,  
 K. Koh,  D. Kosenkov,  T. Kowalczyk,  C. M. Krauter,  A. Kunitsa,  
 K. U. Lao,  A. Laurent,  K. V. Lawler,  J. Lee,  D. Lefrancois,  S. Lehtola,  
 S. V. Levchenko,  C. Y. Lin,  Y.-S. Lin,  F. Liu,  E. Livshits,  
 R. C. Lochan,  A. Luenser,  P. Manohar,  S. F. Manzer,  S.-P. Mao,  Y. Mao,  
 N. Mardirossian,  A. V. Marenich,  L. A. Martinez-Martinez,  S. A. Maurer,  
 N. J. Mayhall,  J.-M. Mewes,  A. F. Morrison,  K. Nanda,  T. S. Nguyen-Beck,  
 C. M. Oana,  R. Olivares-Amaya,  D. P. O'Neill,  J. A. Parkhill,  
 T. M. Perrine,  R. Peverati,  P. A. Pieniazek,  F. Plasser,  A. Prociuk,  
 D. R. Rehn,  E. Rosta,  N. J. Russ,  N. Sergueev,  S. M. Sharada,  
 S. Sharma,  D. W. Small,  A. Sodt,  T. Stauch,  T. Stein,  D. Stuck,  
 Y.-C. Su,  A. J. W. Thom,  T. Tsuchimochi,  L. Vogt,  O. Vydrov,  T. Wang,  
 M. A. Watson,  J. Wenzel,  A. White,  C. F. Williams,  V. Vanovschi,  
 K. Yao,  S. Yeganeh,  S. R. Yost,  Z.-Q. You,  I. Y. Zhang,  X. Zhang,  
 Y. Zhao,  B. R. Brooks,  G. K. L. Chan,  D. M. Chipman,  C. J. Cramer,  
 W. A. Goddard III,  M. S. Gordon,  W. J. Hehre,  A. Klamt,  
 H. F. Schaefer III,  M. W. Schmidt,  C. D. Sherrill,  D. G. Truhlar,  
 A. Warshel,  X. Xu,  A. Aspuru-Guzik,  R. Baer,  A. T. Bell,  N. A. Besley,  
 J.-D. Chai,  A. Dreuw,  B. D. Dunietz,  T. R. Furlani,  S. R. Gwaltney,  
 C.-P. Hsu,  Y. Jung,  J. Kong,  D. S. Lambrecht,  W. Liang,  C. Ochsenfeld,  
 V. A. Rassolov,  L. V. Slipchenko,  J. E. Subotnik,  T. Van Voorhis,  
 J. M. Herbert,  A. I. Krylov,  P. M. W. Gill,  M. Head-Gordon

 Contributors to earlier versions of Q-Chem not listed above: 
 R. D. Adamson,  J. Baker,  E. F. C. Byrd,  A. K. Chakraborty,  C.-L. Cheng,  
 H. Dachsel,  R. J. Doerksen,  G. Hawkins,  A. Heyden,  S. Hirata,  
 G. Kedziora,  F. J. Keil,  C. Kelley,  P. P. Korambath,  W. Kurlancheek,  
 A. M. Lee,  M. S. Lee,  D. Liotard,  I. Lotan,  P. E. Maslen,  N. Nair,  
 D. Neuhauser,  R. Olson,  B. Peters,  J. Ritchie,  N. E. Schultz,  
 N. Shenvi,  A. C. Simmonett,  K. S. Thanthiriwatte,  Q. Wu,  W. Zhang

 Please cite Q-Chem as follows:
 Y. Shao et al., Mol. Phys. 113, 184-215 (2015)
 DOI: 10.1080/00268976.2014.952696

 Q-Chem 4.4.2 for Intel X86 Linux

 Parts of Q-Chem use Armadillo 5.200.1 (Boston Tea Smuggler).
 http://arma.sourceforge.net/

 Q-Chem begins on Sat Oct  6 16:59:57 2018  

Host: 
0

     Scratch files written to /tmpu/cab_g/afmv_a/scratch_qchem/qchem144259//
 Dec716 11556_ 22328  22283 4050   
Processing $rem in /tmpu/appuserlic/qchem4.4/serial-multicore/config/preferences.
 MEM_TOTAL  2000 
FILE_GEOM_ORG=        593

Checking the input file for inconsistencies... 	...done.

--------------------------------------------------------------
User input:
--------------------------------------------------------------
$comment
SP
$end

$rem
MEM_STATIC 5000
MEM_TOTAL 20000
JOBTYPE SP
EXCHANGE B3LYP
BASIS 6-31g(d,p)
$end

$molecule
0 1
O         -19.420000     -1.551000     -7.245000
C         -19.356000     -3.046000     -7.141000
H         -19.947000     -3.353000     -6.269000
H         -18.351000     -3.486000     -7.127000
H         -19.817000     -3.441000     -8.055000
O         -21.638000     -1.404000     -6.572000
C         -20.601000     -0.885000     -6.928000
C         -20.432000      0.643000     -7.048000
H         -19.765000      1.021000     -6.264000
H         -21.451000      1.027000     -6.916000
C         -20.015000      1.161000     -8.431000
H         -19.013000      0.783000     -8.670000
H         -20.755000      0.843000     -9.176000
C         -20.007000      2.629000     -8.424000
H         -21.028000      2.942000     -8.677000
H         -19.713000      3.038000     -7.449000
C         -19.215000      3.235000     -9.657000
C         -19.251000      2.372000    -10.917000
C         -20.503000      2.031000    -11.466000
H         -21.389000      2.571000    -11.144000
C         -20.667000      1.054000    -12.511000
H         -21.671000      0.809000    -12.844000
C         -19.523000      0.390000    -13.031000
H         -19.704000     -0.363000    -13.793000
C         -18.341000      0.632000    -12.378000
H         -17.495000      0.012000    -12.658000
C         -18.140000      1.631000    -11.424000
H         -17.179000      1.776000    -10.938000
C         -14.757000      5.830000    -11.447000
C         -16.509000      6.619000    -12.914000
C         -16.758000     10.805000    -11.068000
C         -15.962000      6.449000     -6.599000
C         -19.570000     10.070000     -8.967000
C         -15.938000      5.562000    -12.153000
C         -17.562000      8.714000     -6.225000
C         -14.814000      9.382000    -11.634000
C         -20.045000      6.601000    -10.913000
C         -17.333000      6.344000     -6.524000
C         -19.319000      4.679000     -9.793000
C         -20.423000      6.788000     -9.585000
C         -19.294000      7.231000     -7.021000
C         -18.185000      9.766000     -6.923000
C         -18.148000      5.465000    -11.887000
C         -17.302000     11.011000     -8.853000
C         -17.971000      4.044000     -9.406000
C         -17.351000      4.524000     -8.121000
C         -18.509000     10.811000     -9.561000
C         -14.093000      8.726000     -8.301000
C         -15.011000     10.469000     -9.427000
C         -14.327000      9.598000    -10.352000
C         -14.694000      8.099000    -12.270000
C         -15.922000      4.631000     -8.265000
C         -19.283000      5.457000    -11.019000
C         -15.902000      7.898000    -12.865000
C         -18.129000      7.456000     -6.322000
C         -17.845000      6.519000    -12.762000
C         -20.523000      8.051000     -8.997000
C         -14.278000      6.372000     -8.077000
C         -16.061000      9.983000    -11.875000
C         -19.887000      5.681000     -8.847000
C         -13.607000      7.354000    -10.210000
C         -19.979000      8.272000     -7.689000
C         -19.804000      7.672000    -11.767000
C         -15.913000      9.965000     -7.151000
C         -16.141000      8.828000     -6.306000
C         -19.870000      8.972000    -11.162000
C         -15.285000      5.626000     -7.517000
C         -18.017000      5.315000     -7.228000
C         -14.408000      7.650000     -7.514000
C         -16.818000      4.216000    -10.307000
C         -18.125000      8.939000    -12.618000
C         -19.241000      5.953000     -7.594000
C         -20.183000      9.114000     -9.800000
C         -13.916000      6.243000     -9.419000
C         -18.187000     10.673000    -10.922000
C         -14.083000      7.070000    -11.502000
C         -16.249000     11.044000     -9.784000
C         -18.706000      7.634000    -12.653000
C         -18.836000      9.745000    -11.720000
C         -16.961000      4.772000    -11.607000
C         -15.610000      4.558000     -9.606000
C         -14.897000      9.875000     -8.158000
C         -16.729000      9.073000    -12.683000
C         -19.436000      9.557000     -7.633000
C         -15.355000      7.724000     -6.532000
C         -17.144000     10.504000     -7.522000
C         -14.626000      5.306000    -10.192000
C         -13.678000      8.600000     -9.608000
O         -12.028000      8.808000     -5.644000
C         -11.163000      7.819000     -6.294000
H         -11.736000      6.950000     -6.639000
H         -10.457000      7.481000     -5.526000
H         -10.534000      8.236000     -7.091000
O         -10.217000     10.160000     -5.351000
C         -11.394000      9.900000     -5.152000
C         -12.298000     10.724000     -4.183000
H         -12.060000     10.506000     -3.135000
H         -13.292000     10.324000     -4.418000
C         -12.290000     12.230000     -4.506000
H         -13.050000     12.817000     -3.977000
H         -11.325000     12.613000     -4.153000
C         -12.438000     12.610000     -6.045000
H         -11.808000     11.933000     -6.636000
H         -13.481000     12.463000     -6.351000
C         -12.049000     14.061000     -6.435000
C         -10.641000     14.450000     -6.064000
C          -9.598000     13.857000     -6.819000
H          -9.863000     13.158000     -7.606000
C          -8.255000     14.108000     -6.500000
H          -7.485000     13.575000     -7.051000
C          -7.915000     14.899000     -5.438000
H          -6.870000     15.019000     -5.168000
C          -9.001000     15.484000     -4.685000
H          -8.766000     16.069000     -3.801000
C         -10.345000     15.227000     -5.014000
H         -11.107000     15.708000     -4.408000
C         -13.657000     19.407000     -6.374000
C         -12.416000     19.221000     -8.477000
C         -15.962000     19.449000    -11.308000
C         -17.307000     15.934000     -6.329000
C         -16.180000     16.107000    -11.817000
C         -12.634000     18.844000     -7.178000
C         -18.161000     15.443000     -8.887000
C         -15.428000     20.651000     -9.231000
C         -12.548000     15.445000     -9.949000
C         -16.848000     14.794000     -6.978000
C         -12.701000     14.728000     -7.649000
C         -13.640000     14.558000     -9.813000
C         -16.243000     14.022000     -8.959000
C         -17.966000     15.787000    -10.225000
C         -11.826000     17.013000     -8.226000
C         -17.628000     17.952000    -11.222000
C         -13.148000     15.193000     -6.307000
C         -14.601000     15.048000     -6.015000
C         -16.535000     17.431000    -11.985000
C         -18.029000     19.168000     -7.335000
C         -17.669000     19.694000     -9.553000
C         -16.782000     20.444000     -8.741000
C         -14.370000     20.586000     -8.357000
C         -15.062000     16.239000     -5.420000
C         -12.043000     15.681000     -8.621000
C         -13.279000     20.114000     -9.080000
C         -17.284000     14.529000     -8.234000
C         -11.966000     18.092000     -9.164000
C         -14.718000     14.664000    -10.719000
C         -16.743000     18.020000     -5.619000
C         -15.057000     20.157000    -10.482000
C         -13.785000     14.113000     -8.507000
C         -15.807000     20.029000     -6.572000
C         -15.983000     14.364000    -10.290000
C         -12.677000     16.568000    -10.883000
C         -18.769000     17.646000     -9.081000
C         -18.593000     16.576000     -8.186000
C         -13.766000     16.611000    -11.741000
C         -16.377000     16.655000     -5.541000
C         -15.540000     14.389000     -6.839000
C         -17.878000     18.093000     -6.468000
C         -12.975000     16.643000     -6.163000
C         -13.249000     18.732000    -11.085000
C         -15.123000     13.829000     -8.084000
C         -14.860000     15.680000    -11.700000
C         -15.726000     18.987000     -5.633000
C         -15.522000     18.313000    -12.064000
C         -14.496000     20.325000     -7.028000
C         -17.320000     19.215000    -10.813000
C         -12.321000     17.863000    -10.497000
C         -14.142000     17.936000    -11.946000
C         -12.218000     17.489000     -6.987000
C         -14.051000     17.200000     -5.484000
C         -18.408000     18.934000     -8.677000
C         -13.730000     19.856000    -10.385000
C         -16.891000     15.231000    -10.949000
C         -18.201000     16.840000     -6.873000
C         -18.353000     17.134000    -10.348000
C         -14.395000     18.571000     -5.573000
C         -16.979000     20.105000     -7.394000
$end

--------------------------------------------------------------
 ----------------------------------------------------------------
             Standard Nuclear Orientation (Angstroms)
    I     Atom           X                Y                Z
 ----------------------------------------------------------------
    1      O      12.9750340265     1.6181995865     2.0614906814
    2      C      14.3795529133     2.1390755378     1.9843418645
    3      H      14.7642433400     2.2359276695     3.0073506328
    4      H      14.5209639640     3.0614397534     1.4072212804
    5      H      14.9619051071     1.3831438548     1.4427006428
    6      O      13.3928037386     0.1965218164     3.8498873895
    7      C      12.6383875963     0.6760398426     3.0298966902
    8      C      11.1390373427     0.3211219566     2.9688466199
    9      H      10.5267363484     1.1729961008     3.2879499493
   10      H      11.0428898106    -0.5167200328     3.6702861774
   11      C      10.6433791852    -0.2516724429     1.6342562082
   12      H      10.7474503755     0.5124022110     0.8536358712
   13      H      11.2152209068    -1.1563454675     1.3927758489
   14      C       9.2354572353    -0.6473809483     1.7619572720
   15      H       9.2400423412    -1.6783601075     2.1380954781
   16      H       8.6808895661     0.0063628880     2.4470964525
   17      C       8.5390714125    -0.8663143596     0.3541561685
   18      C       9.4805294443    -1.3472886194    -0.7485611733
   19      C      10.1999015778    -2.5421034636    -0.5482932989
   20      H       9.9016702183    -3.2139030366     0.2517213197
   21      C      11.2679632983    -2.9746271735    -1.4117847010
   22      H      11.8086294817    -3.8818036775    -1.1595132822
   23      C      11.6299396922    -2.1735706968    -2.5286166540
   24      H      12.4646250660    -2.5262014447    -3.1280879899
   25      C      11.0160263556    -0.9495731941    -2.6125066328
   26      H      11.3984034470    -0.2641807662    -3.3625339520
   27      C       9.9242667111    -0.5438527694    -1.8431108857
   28      H       9.4784318502     0.4409668716    -1.9531270284
   29      C       4.9693404442     0.9521208666    -3.3555881815
   30      C       4.8225326121    -1.4532143309    -3.5477444926
   31      C       0.7303711141    -1.7944025301    -1.5154753454
   32      C       4.3051469570     2.4894589795     1.3913822775
   33      C       2.0375028284    -2.6576348770     1.7106688852
   34      C       5.6122983109    -0.2929719736    -3.3185746575
   35      C       2.5493631963     0.8058579130     2.7744266854
   36      C       1.6009382662    -0.1774634840    -3.1744032989
   37      C       5.6524268327    -3.1408335383     0.0537604697
   38      C       4.7793922419     1.4777847798     2.1963032197
   39      C       7.1971333091    -1.4222072229     0.4222241583
   40      C       5.4670760593    -2.7623471819     1.3818531505
   41      C       4.5155372097    -0.5874794720     2.9341128783
   42      C       1.7735246122    -0.3594767206     2.6257435212
   43      C       6.2954595335    -1.8641342420    -1.8941432375
   44      C       0.4986163108    -1.0656019507     0.6431669193
   45      C       7.3989021451     0.0293334263    -0.0493869956
   46      C       6.6600707079     1.0907394465     0.7210481850
   47      C       1.0838610987    -2.3511083540     0.6986180258
   48      C       1.7500598375     2.4011262074    -0.8532604855
   49      C       0.4304074287     0.5771915870    -1.1368605920
   50      C       1.1519150217     0.8503363795    -2.3562623780
   51      C       2.8489442497    -0.0769312577    -3.8796403771
   52      C       6.1736088220     2.1097786382    -0.1728980994
   53      C       6.5450804565    -2.2814071840    -0.5505340359
   54      C       3.4259667448    -1.3009650827    -3.7297196140
   55      C       3.9187582072     0.6530364137     2.8963483548
   56      C       5.2758467188    -2.3964149891    -2.6975216753
   57      C       4.2366866797    -2.8678981328     2.0344739987
   58      C       4.0357601207     3.0288328999    -0.7679638056
   59      C       1.3914991356    -1.4598187755    -2.6396218885
   60      C       6.3163262716    -1.6285158772     1.6067745801
   61      C       3.0883378139     2.1167785015    -2.8258271992
   62      C       3.7649022480    -1.7822403358     2.8434286314
   63      C       4.6319701956    -3.7152186082    -0.6966980856
   64      C       0.9723670019     1.2532536447     1.2077109925
   65      C       2.0531463391     1.8512071873     1.9378791821
   66      C       3.3553187582    -3.7948447102    -0.0453903309
   67      C       4.9820650946     2.7476492625     0.1857697308
   68      C       6.0128250119     0.8363627372     1.8970802844
   69      C       2.8014209634     2.8817485846    -0.1184054565
   70      C       6.9900784719     0.3973667199    -1.4162113073
   71      C       3.0250672996    -3.2074330683    -2.2160887294
   72      C       5.7720564171    -0.5066406147     2.3184453052
   73      C       3.1921780929    -3.3339757516     1.2714854895
   74      C       4.1712018721     2.6140061169    -2.0939439231
   75      C       1.2405947584    -2.8054328363    -0.6220154679
   76      C       3.6002361445     1.1109733304    -3.6641660668
   77      C       0.2530676422    -0.7545044294    -0.7057523458
   78      C       4.4381410577    -3.3242980823    -2.0389556644
   79      C       2.3755189750    -3.4987232668    -1.0099386582
   80      C       6.6063251238    -0.5822958843    -2.3715016034
   81      C       6.2692248364     1.6405633869    -1.4658206129
   82      C       0.8611656986     1.5274716896    -0.1947310683
   83      C       2.5152977464    -2.1785638570    -3.0239006807
   84      C       2.3797473643    -1.6783119824     2.7028766990
   85      C       2.9109033832     2.6526878644     1.2240377587
   86      C       0.8287164968    -0.0706453183     1.6202386500
   87      C       5.3295566317     1.8887828957    -2.4284039810
   88      C       1.8650102850     2.0464908104    -2.1789188615
   89      O       0.8768304047     5.4654043114     0.2322200804
   90      C       1.6380992214     6.0648472965    -0.8677725997
   91      H       2.6575744343     5.6637052956    -0.9154211618
   92      H       1.7016573972     7.1366733588    -0.6449425063
   93      H       1.1313110813     6.0087093282    -1.8397568123
   94      O      -0.9437578904     6.6813813544    -0.4004979378
   95      C      -0.3853029074     5.9336632262     0.3879027425
   96      C      -1.0045254519     5.5240483306     1.7604667948
   97      H      -0.9495373214     6.3469945805     2.4831062451
   98      H      -0.3264718235     4.7213729892     2.0754534187
   99      C      -2.4212029407     4.9368151669     1.6169011156
  100      H      -2.8166695010     4.4649950347     2.5240956716
  101      H      -3.0848214965     5.7860347871     1.4145167066
  102      C      -2.6151080577     3.8707647575     0.4503839361
  103      H      -2.0922740812     4.2308759110    -0.4448671964
  104      H      -2.1596934443     2.9205300443     0.7549254270
  105      C      -4.0791415777     3.5626291185     0.0374913588
  106      C      -4.8728020685     4.7696311698    -0.3922470191
  107      C      -4.5311223445     5.3424526215    -1.6431081428
  108      H      -3.7227482517     4.8948951591    -2.2126857441
  109      C      -5.1703253248     6.5077927148    -2.0923441797
  110      H      -4.8274764162     6.9605063541    -3.0186783454
  111      C      -6.1105613886     7.1399455365    -1.3271880164
  112      H      -6.5376741715     8.0794756825    -1.6650974355
  113      C      -6.4324974979     6.5343078458    -0.0551069934
  114      H      -7.1315568702     7.0429189153     0.6018075931
  115      C      -5.7864374706     5.3643520778     0.3858419178
  116      H      -6.0863340470     4.9624975053     1.3490739490
  117      C      -8.7555401066     0.8492112989     1.4295263927
  118      C      -8.7454989123     0.7263146791    -1.0163030362
  119      C      -7.7439194526    -3.6877604537    -1.4080176102
  120      C      -4.4233488007    -1.0461005788     3.1691140955
  121      C      -4.4420501282    -3.2150203268    -1.9994098125
  122      C      -8.4329309910     1.3710782217     0.1514449112
  123      C      -3.5025937785    -2.9874062283     1.4669673438
  124      C      -9.2162665858    -2.4593842226     0.1305449507
  125      C      -4.9714670056     0.8586600244    -2.4933107807
  126      C      -3.4050949480    -0.7247328979     2.2795277281
  127      C      -4.4352506362     2.1978051360    -0.5576815871
  128      C      -3.8311577416     0.3168045513    -1.8578452594
  129      C      -2.6680755963    -1.1205569676     0.2334349196
  130      C      -3.7739362127    -3.6625884168     0.2765441855
  131      C      -6.8166220262     1.9400129479    -1.3208280282
  132      C      -5.8564512996    -4.5413335267    -0.5519580441
  133      C      -4.8687392778     2.4526645229     0.8437934539
  134      C      -4.3516383815     1.5063772284     1.8707525668
  135      C      -5.5968771879    -3.9533518252    -1.8306909322
  136      C      -7.2345052226    -3.0617681712     3.0061425369
  137      C      -7.6521424786    -4.1397847732     1.0088295098
  138      C      -8.6838327165    -3.2017989620     1.2626224788
  139      C      -9.5204541891    -1.1271294415     0.2720797527
  140      C      -5.4136341931     1.1397100432     2.7208978904
  141      C      -5.4484724774     1.9203670046    -1.6450483991
  142      C      -9.3105742930    -0.5323313924    -0.9680652832
  143      C      -2.9254828594    -1.6844798839     1.4508450581
  144      C      -7.7320991109     1.0166947641    -1.9316227884
  145      C      -3.5579922458    -1.0601207450    -2.0115115876
  146      C      -6.6357453231    -0.7883092607     3.6300232667
  147      C      -8.7415696816    -2.7162795865    -1.1560574047
  148      C      -3.4743228317     1.0418116634    -0.7301398305
  149      C      -8.7383809725    -1.1279122043     2.4968952217
  150      C      -2.9561064788    -1.7400554762    -0.9869686237
  151      C      -5.9324431377    -0.0659487590    -3.1030233944
  152      C      -5.4264656882    -4.1826589132     1.8283492671
  153      C      -4.5259831752    -3.2570089734     2.3844108040
  154      C      -5.5999441828    -1.4078063242    -3.2161459823
  155      C      -5.4371916725    -0.0793311421     3.3768747451
  156      C      -3.3916323657     0.4956172024     1.6433089045
  157      C      -6.3199640407    -2.1698223214     3.5521846852
  158      C      -6.3166327684     2.2672828008     0.9934699616
  159      C      -7.8282947328    -1.2264000726    -2.7713858239
  160      C      -2.8670151445     0.2965584529     0.3308050434
  161      C      -4.4090150027    -1.9911866576    -2.6624013890
  162      C      -7.8420488268    -0.2608313422     3.1440470302
  163      C      -6.7152732427    -3.4411853471    -2.3758604135
  164      C      -9.3469289972    -0.4253840001     1.4243298746
  165      C      -7.1849518189    -4.4231241046    -0.2719100073
  166      C      -7.3029529822     0.0686734899    -2.8656700377
  167      C      -6.7468111182    -2.1832812534    -3.0666104793
  168      C      -7.2672648428     2.1787313900    -0.0342451287
  169      C      -6.6083472452     1.6366851668     2.1960984528
  170      C      -6.7931676641    -4.0322821541     2.0773342852
  171      C      -8.8294039315    -1.5327285919    -1.8286874573
  172      C      -3.4791357976    -3.0577407170    -0.9628867224
  173      C      -4.9972121608    -2.3004386699     3.2845471812
  174      C      -4.9456741013    -4.4078453291     0.5022197380
  175      C      -7.8178213807     0.9373742704     2.4285518586
  176      C      -8.4174749244    -2.5246404427     2.4620593743
 ----------------------------------------------------------------
 Molecular Point Group                 C1    NOp =  1
 Largest Abelian Subgroup              C1    NOp =  1
 Nuclear Repulsion Energy = 34368.2237911509 hartrees
 There are      462 alpha and      462 beta electrons
 Requested basis set is 6-31G(d,p)
 There are 676 shells and 2360 basis functions

 Total QAlloc Memory Limit  20000 MB
 Mega-Array Size      4888 MB
 MEM_STATIC part      5000 MB
 A cutoff of  1.0D-08 yielded  37650 shell pairs
 There are    528445 function pairs
 
 -------------------------------------------------------
 OpenMP Integral Computing Module                       
 Release: version 1.0, May 2013, Q-Chem Inc. Pittsburgh 
 -------------------------------------------------------
 Integral Job Info:
 Integral job number is                      11
 Integral operator is                         1
 short-range coefficients                     0
 long-range coefficients              100000000
 Omega coefficients                           0
 if combine SR and LR in K                    0
 Integral screening is                        0
 Integral computing path is                   2
 max size of driver memory is            800000
 size of driver memory is                593474
 size of scratch memory is              2260544
 max col of scratch BK array               1296
 max len of scratch array in speh3          155
 max len of scratch index in speh4           18
 max int batch size is                      520
 min int batch size is                       52
 fixed nKL is                                52
 max L of basis functions is                  2
 order of int derivative is                   0
 number of shells is                        676
 number of basis is                        2360
 number of cartesian basis is              2360
 number of contracted shell pairs         37650
 number of primitive shell pairs         113997
 maxK2 (contraction) of shell pair           36
 max number of K2 of shell pair               1
 max number of CS2 of shell pair           7179
 max number of PS2 of shell pair          34446
 mem total for path MDJ                 1499464
 -------------------------------------------------------
 Smallest overlap matrix eigenvalue = 2.44E-04

 Scale SEOQF with 1.000000e-02/1.000000e-02/1.000000e-01

 Standard Electronic Orientation quadrupole field applied
 Nucleus-field energy     =    -0.0000002134 hartrees
 Guess from superposition of atomic densities
 Warning:  Energy on first SCF cycle will be non-variational
 A restricted hybrid HF-DFT SCF calculation will be
 performed using Pulay DIIS extrapolation
 Exchange:     0.2000 Hartree-Fock + 0.0800 Slater + 0.7200 B88
 Correlation:  0.1900 VWN1RPA + 0.8100 LYP
 Using SG-1 standard quadrature grid
 SCF converges when DIIS error is below 1.0E-05
 using 16 threads for integral computing 
 -------------------------------------------------------
 OpenMP BLAS3 based DFT computing Module                
 Release: version 1.0, May 2013, Q-Chem Inc. Pittsburgh 
 -------------------------------------------------------
 ---------------------------------------
  Cycle       Energy         DIIS Error
 ---------------------------------------
    1   -5858.7913031376      1.84E-02
    2   -5803.1118236318      1.30E-03
    3   -5802.3391184905      1.79E-03
    4   -5803.9936524450      6.32E-04
    5   -5804.2024819995      3.01E-04
    6   -5804.2598499089      1.30E-04
    7   -5804.2710935019      4.48E-05
    8   -5804.2720353298      2.77E-05
    9   -5804.2725852142      8.36E-06 Convergence criterion met
 ---------------------------------------
 SCF time:  CPU 7238.26 s  wall 839.65 s
 SCF   energy in the final basis set = -5804.2725852142
 Total energy in the final basis set = -5804.2725852142
 
 --------------------------------------------------------------
 
                    Orbital Energies (a.u.)
 --------------------------------------------------------------
 
 Alpha MOs
 -- Occupied --
-19.202 -19.191 -19.141 -19.137 -10.321 -10.320 -10.252 -10.248
-10.247 -10.244 -10.242 -10.240 -10.236 -10.236 -10.233 -10.231
-10.228 -10.226 -10.226 -10.224 -10.223 -10.222 -10.222 -10.221
-10.221 -10.221 -10.220 -10.220 -10.220 -10.220 -10.219 -10.219
-10.219 -10.218 -10.218 -10.218 -10.218 -10.218 -10.218 -10.218
-10.217 -10.217 -10.217 -10.216 -10.216 -10.216 -10.216 -10.216
-10.215 -10.215 -10.215 -10.215 -10.215 -10.215 -10.215 -10.215
-10.214 -10.214 -10.214 -10.214 -10.213 -10.213 -10.213 -10.213
-10.213 -10.213 -10.213 -10.213 -10.213 -10.213 -10.213 -10.213
-10.212 -10.212 -10.212 -10.212 -10.212 -10.212 -10.212 -10.212
-10.212 -10.211 -10.211 -10.211 -10.211 -10.211 -10.211 -10.211
-10.211 -10.211 -10.211 -10.211 -10.211 -10.211 -10.210 -10.210
-10.210 -10.210 -10.210 -10.210 -10.210 -10.210 -10.210 -10.209
-10.209 -10.209 -10.209 -10.209 -10.209 -10.209 -10.209 -10.208
-10.208 -10.208 -10.208 -10.207 -10.207 -10.207 -10.207 -10.207
-10.207 -10.207 -10.206 -10.206 -10.206 -10.206 -10.206 -10.206
-10.205 -10.205 -10.205 -10.205 -10.204 -10.204 -10.203 -10.203
-10.203 -10.203 -10.201 -10.201 -10.200 -10.199 -10.198 -10.195
-10.194 -10.192 -10.190 -10.190  -1.098  -1.079  -1.010  -1.007
 -0.987  -0.981  -0.969  -0.966  -0.964  -0.963  -0.961  -0.958
 -0.938  -0.933  -0.929  -0.927  -0.925  -0.925  -0.923  -0.922
 -0.919  -0.917  -0.898  -0.895  -0.891  -0.886  -0.885  -0.883
 -0.879  -0.871  -0.857  -0.851  -0.844  -0.843  -0.838  -0.838
 -0.837  -0.834  -0.828  -0.819  -0.814  -0.802  -0.799  -0.796
 -0.796  -0.795  -0.793  -0.793  -0.791  -0.789  -0.788  -0.780
 -0.773  -0.771  -0.769  -0.768  -0.767  -0.765  -0.764  -0.763
 -0.748  -0.748  -0.743  -0.736  -0.735  -0.731  -0.718  -0.718
 -0.715  -0.714  -0.713  -0.712  -0.711  -0.710  -0.709  -0.708
 -0.706  -0.706  -0.704  -0.703  -0.702  -0.698  -0.679  -0.669
 -0.662  -0.659  -0.657  -0.654  -0.649  -0.645  -0.633  -0.630
 -0.629  -0.624  -0.624  -0.621  -0.621  -0.619  -0.619  -0.618
 -0.616  -0.616  -0.613  -0.611  -0.611  -0.610  -0.609  -0.607
 -0.606  -0.605  -0.603  -0.600  -0.567  -0.566  -0.565  -0.562
 -0.561  -0.559  -0.559  -0.558  -0.555  -0.555  -0.553  -0.551
 -0.538  -0.535  -0.534  -0.531  -0.530  -0.526  -0.524  -0.523
 -0.523  -0.521  -0.518  -0.517  -0.516  -0.516  -0.512  -0.510
 -0.509  -0.505  -0.505  -0.497  -0.494  -0.491  -0.490  -0.487
 -0.484  -0.484  -0.482  -0.480  -0.479  -0.478  -0.477  -0.476
 -0.472  -0.471  -0.470  -0.469  -0.468  -0.467  -0.466  -0.465
 -0.465  -0.464  -0.463  -0.463  -0.462  -0.460  -0.458  -0.457
 -0.456  -0.455  -0.453  -0.452  -0.450  -0.447  -0.446  -0.445
 -0.443  -0.442  -0.441  -0.440  -0.436  -0.436  -0.434  -0.434
 -0.432  -0.431  -0.428  -0.428  -0.425  -0.425  -0.423  -0.422
 -0.421  -0.420  -0.420  -0.420  -0.419  -0.418  -0.418  -0.417
 -0.416  -0.416  -0.415  -0.414  -0.413  -0.413  -0.412  -0.412
 -0.411  -0.410  -0.408  -0.408  -0.405  -0.402  -0.401  -0.399
 -0.396  -0.393  -0.393  -0.387  -0.385  -0.384  -0.383  -0.382
 -0.381  -0.378  -0.376  -0.373  -0.372  -0.369  -0.368  -0.366
 -0.365  -0.363  -0.362  -0.361  -0.361  -0.360  -0.358  -0.357
 -0.357  -0.356  -0.354  -0.353  -0.353  -0.352  -0.352  -0.351
 -0.351  -0.349  -0.348  -0.347  -0.347  -0.347  -0.346  -0.344
 -0.343  -0.341  -0.340  -0.339  -0.337  -0.336  -0.334  -0.333
 -0.333  -0.332  -0.329  -0.329  -0.328  -0.326  -0.324  -0.322
 -0.321  -0.306  -0.303  -0.300  -0.288  -0.285  -0.275  -0.272
 -0.270  -0.269  -0.268  -0.267  -0.265  -0.264  -0.263  -0.263
 -0.262  -0.261  -0.260  -0.259  -0.258  -0.255  -0.255  -0.254
 -0.252  -0.245  -0.244  -0.241  -0.222  -0.219  -0.212  -0.211
 -0.208  -0.208  -0.203  -0.202  -0.199  -0.195
 -- Virtual --
 -0.124  -0.121  -0.115  -0.115  -0.110  -0.104  -0.078  -0.072
 -0.069  -0.067  -0.059  -0.056  -0.050  -0.048  -0.026  -0.024
 -0.021  -0.019  -0.019  -0.018  -0.016  -0.015  -0.014  -0.012
 -0.011  -0.009  -0.008  -0.007  -0.001   0.002   0.002   0.004
  0.005   0.007   0.033   0.036   0.039   0.045   0.046   0.047
  0.052   0.054   0.056   0.058   0.062   0.067   0.069   0.070
  0.071   0.072   0.073   0.077   0.083   0.086   0.089   0.094
  0.095   0.097   0.099   0.101   0.103   0.104   0.105   0.107
  0.109   0.110   0.111   0.114   0.114   0.117   0.118   0.123
  0.123   0.125   0.125   0.126   0.128   0.133   0.134   0.139
  0.140   0.143   0.144   0.147   0.148   0.151   0.154   0.159
  0.160   0.160   0.162   0.162   0.163   0.165   0.166   0.167
  0.170   0.173   0.175   0.175   0.176   0.180   0.181   0.182
  0.183   0.184   0.186   0.187   0.188   0.189   0.190   0.193
  0.194   0.195   0.196   0.198   0.199   0.203   0.204   0.205
  0.209   0.212   0.213   0.214   0.216   0.218   0.219   0.221
  0.221   0.222   0.224   0.225   0.227   0.228   0.229   0.230
  0.232   0.232   0.233   0.235   0.238   0.239   0.242   0.244
  0.246   0.247   0.247   0.251   0.252   0.253   0.258   0.259
  0.263   0.265   0.268   0.270   0.273   0.277   0.280   0.281
  0.281   0.285   0.286   0.289   0.291   0.293   0.301   0.305
  0.308   0.309   0.311   0.314   0.316   0.317   0.317   0.321
  0.322   0.323   0.323   0.325   0.327   0.328   0.330   0.332
  0.337   0.339   0.341   0.345   0.345   0.351   0.351   0.354
  0.355   0.357   0.360   0.362   0.369   0.371   0.384   0.389
  0.395   0.397   0.401   0.405   0.405   0.407   0.408   0.409
  0.410   0.412   0.413   0.417   0.419   0.423   0.425   0.425
  0.428   0.431   0.434   0.435   0.440   0.440   0.442   0.447
  0.449   0.452   0.452   0.456   0.457   0.459   0.459   0.462
  0.463   0.468   0.470   0.474   0.475   0.476   0.477   0.478
  0.479   0.481   0.481   0.483   0.484   0.485   0.485   0.487
  0.488   0.488   0.490   0.493   0.494   0.495   0.496   0.497
  0.498   0.499   0.500   0.500   0.502   0.503   0.503   0.506
  0.507   0.507   0.508   0.509   0.510   0.511   0.512   0.514
  0.515   0.516   0.517   0.517   0.518   0.519   0.521   0.521
  0.521   0.523   0.524   0.525   0.525   0.525   0.526   0.528
  0.529   0.529   0.530   0.530   0.531   0.532   0.534   0.534
  0.535   0.536   0.536   0.537   0.538   0.538   0.540   0.541
  0.541   0.543   0.543   0.544   0.545   0.546   0.546   0.548
  0.549   0.549   0.550   0.551   0.552   0.552   0.553   0.554
  0.555   0.555   0.556   0.557   0.558   0.558   0.559   0.560
  0.560   0.561   0.562   0.563   0.563   0.564   0.565   0.565
  0.566   0.567   0.568   0.569   0.570   0.571   0.572   0.573
  0.574   0.575   0.576   0.577   0.577   0.578   0.578   0.580
  0.580   0.581   0.582   0.583   0.583   0.585   0.585   0.586
  0.588   0.589   0.589   0.590   0.591   0.591   0.592   0.593
  0.594   0.595   0.595   0.597   0.597   0.598   0.599   0.599
  0.600   0.601   0.602   0.603   0.605   0.605   0.607   0.608
  0.609   0.610   0.612   0.613   0.614   0.615   0.618   0.619
  0.619   0.621   0.622   0.623   0.623   0.625   0.625   0.626
  0.626   0.627   0.628   0.630   0.631   0.631   0.632   0.633
  0.635   0.636   0.637   0.638   0.639   0.640   0.640   0.642
  0.643   0.644   0.645   0.646   0.646   0.648   0.650   0.652
  0.652   0.652   0.654   0.655   0.657   0.657   0.658   0.659
  0.659   0.661   0.661   0.662   0.663   0.663   0.664   0.666
  0.666   0.668   0.668   0.670   0.670   0.671   0.672   0.673
  0.674   0.674   0.675   0.676   0.678   0.679   0.680   0.681
  0.681   0.682   0.684   0.685   0.686   0.687   0.688   0.689
  0.691   0.691   0.693   0.695   0.695   0.696   0.698   0.699
  0.700   0.701   0.702   0.704   0.705   0.706   0.706   0.706
  0.708   0.710   0.711   0.714   0.715   0.717   0.717   0.719
  0.719   0.721   0.722   0.723   0.724   0.725   0.726   0.727
  0.728   0.729   0.731   0.732   0.732   0.733   0.734   0.736
  0.736   0.738   0.739   0.740   0.742   0.742   0.745   0.746
  0.748   0.751   0.752   0.753   0.754   0.755   0.756   0.757
  0.757   0.759   0.760   0.764   0.765   0.766   0.768   0.769
  0.771   0.771   0.771   0.774   0.775   0.776   0.779   0.779
  0.781   0.781   0.784   0.786   0.786   0.787   0.787   0.789
  0.789   0.791   0.792   0.794   0.794   0.795   0.797   0.797
  0.799   0.800   0.800   0.801   0.802   0.803   0.804   0.805
  0.805   0.806   0.808   0.808   0.809   0.810   0.810   0.811
  0.812   0.812   0.813   0.815   0.815   0.816   0.817   0.818
  0.819   0.821   0.821   0.822   0.823   0.825   0.825   0.826
  0.827   0.829   0.829   0.830   0.831   0.833   0.835   0.836
  0.838   0.839   0.841   0.843   0.845   0.848   0.850   0.852
  0.853   0.854   0.858   0.859   0.862   0.863   0.866   0.867
  0.870   0.873   0.874   0.875   0.882   0.883   0.888   0.889
  0.890   0.893   0.896   0.897   0.902   0.906   0.906   0.909
  0.914   0.916   0.917   0.918   0.920   0.921   0.925   0.928
  0.929   0.929   0.931   0.931   0.935   0.935   0.937   0.938
  0.941   0.943   0.944   0.946   0.947   0.948   0.949   0.953
  0.954   0.955   0.958   0.959   0.962   0.962   0.967   0.969
  0.972   0.974   0.978   0.983   0.985   0.987   0.989   0.995
  0.997   0.998   1.000   1.001   1.003   1.004   1.007   1.008
  1.009   1.011   1.013   1.015   1.016   1.018   1.020   1.021
  1.026   1.026   1.027   1.028   1.031   1.032   1.033   1.035
  1.035   1.039   1.040   1.041   1.042   1.044   1.047   1.048
  1.049   1.051   1.052   1.055   1.056   1.057   1.061   1.061
  1.062   1.062   1.065   1.066   1.069   1.070   1.072   1.073
  1.077   1.078   1.079   1.080   1.081   1.082   1.085   1.086
  1.087   1.089   1.091   1.093   1.094   1.096   1.097   1.098
  1.100   1.101   1.103   1.105   1.109   1.110   1.111   1.113
  1.117   1.119   1.124   1.124   1.127   1.130   1.131   1.134
  1.134   1.135   1.136   1.138   1.140   1.144   1.145   1.147
  1.149   1.150   1.153   1.155   1.157   1.160   1.163   1.164
  1.165   1.166   1.169   1.170   1.172   1.172   1.173   1.177
  1.178   1.179   1.181   1.181   1.183   1.185   1.185   1.187
  1.188   1.189   1.190   1.193   1.194   1.196   1.199   1.200
  1.200   1.201   1.206   1.207   1.210   1.211   1.213   1.217
  1.220   1.223   1.225   1.228   1.234   1.237   1.240   1.240
  1.246   1.248   1.250   1.255   1.257   1.259   1.260   1.264
  1.265   1.267   1.269   1.269   1.271   1.271   1.275   1.276
  1.279   1.280   1.281   1.286   1.287   1.293   1.294   1.296
  1.298   1.299   1.302   1.302   1.307   1.308   1.312   1.317
  1.318   1.323   1.328   1.329   1.332   1.332   1.334   1.336
  1.339   1.341   1.342   1.346   1.347   1.348   1.349   1.351
  1.353   1.356   1.358   1.361   1.361   1.364   1.367   1.369
  1.370   1.372   1.375   1.378   1.380   1.381   1.382   1.386
  1.388   1.392   1.393   1.395   1.398   1.399   1.405   1.406
  1.409   1.411   1.412   1.413   1.418   1.420   1.428   1.430
  1.432   1.435   1.435   1.441   1.444   1.445   1.447   1.450
  1.451   1.454   1.456   1.458   1.460   1.463   1.464   1.465
  1.468   1.469   1.471   1.473   1.474   1.477   1.479   1.482
  1.483   1.484   1.487   1.488   1.490   1.492   1.494   1.497
  1.498   1.499   1.501   1.502   1.503   1.506   1.507   1.512
  1.518   1.526   1.527   1.530   1.531   1.531   1.537   1.543
  1.546   1.546   1.548   1.551   1.552   1.555   1.555   1.556
  1.558   1.560   1.565   1.567   1.571   1.571   1.575   1.578
  1.579   1.581   1.584   1.585   1.586   1.589   1.591   1.594
  1.596   1.597   1.602   1.608   1.614   1.615   1.618   1.619
  1.622   1.627   1.628   1.633   1.636   1.639   1.640   1.642
  1.643   1.646   1.654   1.656   1.662   1.664   1.670   1.671
  1.673   1.674   1.679   1.681   1.688   1.688   1.693   1.694
  1.697   1.698   1.702   1.704   1.710   1.710   1.712   1.717
  1.717   1.721   1.723   1.724   1.728   1.729   1.730   1.731
  1.734   1.737   1.738   1.739   1.741   1.742   1.744   1.745
  1.746   1.749   1.750   1.752   1.753   1.757   1.757   1.758
  1.759   1.761   1.762   1.763   1.765   1.766   1.769   1.771
  1.771   1.772   1.773   1.774   1.776   1.777   1.779   1.780
  1.781   1.782   1.783   1.786   1.786   1.787   1.788   1.789
  1.791   1.792   1.794   1.795   1.795   1.796   1.797   1.798
  1.801   1.803   1.805   1.805   1.808   1.808   1.811   1.811
  1.813   1.813   1.814   1.816   1.817   1.818   1.821   1.823
  1.825   1.828   1.829   1.830   1.832   1.834   1.837   1.837
  1.840   1.845   1.846   1.847   1.850   1.854   1.854   1.858
  1.859   1.862   1.864   1.865   1.866   1.867   1.869   1.871
  1.873   1.876   1.877   1.878   1.879   1.881   1.882   1.885
  1.888   1.891   1.891   1.894   1.895   1.896   1.901   1.902
  1.904   1.906   1.909   1.910   1.914   1.915   1.919   1.922
  1.923   1.926   1.929   1.931   1.934   1.936   1.937   1.937
  1.940   1.941   1.942   1.944   1.946   1.947   1.949   1.952
  1.954   1.954   1.957   1.960   1.962   1.964   1.965   1.967
  1.970   1.972   1.974   1.976   1.979   1.980   1.981   1.982
  1.983   1.985   1.989   1.989   1.992   1.994   1.996   1.998
  1.999   2.001   2.002   2.003   2.004   2.006   2.006   2.007
  2.008   2.010   2.012   2.013   2.013   2.016   2.016   2.017
  2.019   2.021   2.022   2.023   2.025   2.026   2.027   2.028
  2.029   2.030   2.031   2.033   2.034   2.035   2.036   2.037
  2.038   2.040   2.042   2.042   2.043   2.046   2.048   2.048
  2.049   2.050   2.053   2.054   2.055   2.055   2.057   2.059
  2.059   2.061   2.062   2.063   2.064   2.065   2.066   2.069
  2.069   2.071   2.072   2.073   2.075   2.076   2.077   2.078
  2.079   2.080   2.083   2.085   2.086   2.089   2.090   2.092
  2.093   2.095   2.099   2.100   2.103   2.103   2.105   2.108
  2.108   2.109   2.112   2.114   2.115   2.119   2.120   2.123
  2.125   2.129   2.131   2.132   2.134   2.135   2.142   2.142
  2.148   2.150   2.154   2.157   2.163   2.165   2.166   2.169
  2.176   2.177   2.181   2.188   2.193   2.194   2.200   2.204
  2.205   2.211   2.213   2.219   2.221   2.223   2.224   2.228
  2.229   2.233   2.233   2.239   2.240   2.241   2.245   2.251
  2.251   2.254   2.256   2.259   2.260   2.263   2.264   2.266
  2.270   2.270   2.272   2.273   2.278   2.280   2.283   2.284
  2.285   2.288   2.292   2.293   2.298   2.301   2.302   2.304
  2.306   2.306   2.307   2.312   2.313   2.315   2.316   2.320
  2.323   2.324   2.326   2.329   2.333   2.334   2.336   2.341
  2.346   2.348   2.349   2.352   2.353   2.354   2.355   2.358
  2.359   2.360   2.361   2.362   2.365   2.367   2.369   2.370
  2.372   2.374   2.376   2.377   2.380   2.382   2.383   2.385
  2.388   2.389   2.392   2.393   2.396   2.396   2.398   2.400
  2.401   2.403   2.404   2.405   2.408   2.408   2.410   2.413
  2.415   2.417   2.418   2.420   2.421   2.422   2.424   2.426
  2.428   2.431   2.432   2.435   2.438   2.441   2.443   2.444
  2.447   2.448   2.450   2.453   2.455   2.456   2.460   2.463
  2.464   2.470   2.471   2.473   2.474   2.475   2.476   2.478
  2.482   2.483   2.484   2.486   2.488   2.490   2.493   2.495
  2.497   2.499   2.500   2.503   2.503   2.505   2.508   2.509
  2.510   2.513   2.515   2.517   2.518   2.520   2.522   2.523
  2.525   2.527   2.532   2.532   2.535   2.536   2.539   2.542
  2.543   2.546   2.548   2.549   2.552   2.556   2.557   2.559
  2.563   2.564   2.572   2.576   2.579   2.581   2.582   2.586
  2.590   2.591   2.594   2.594   2.597   2.602   2.603   2.607
  2.608   2.610   2.611   2.615   2.618   2.619   2.621   2.623
  2.624   2.625   2.628   2.630   2.631   2.633   2.634   2.635
  2.637   2.638   2.639   2.640   2.641   2.643   2.644   2.646
  2.647   2.652   2.653   2.654   2.657   2.658   2.661   2.664
  2.665   2.667   2.668   2.669   2.670   2.672   2.675   2.676
  2.678   2.681   2.682   2.682   2.684   2.686   2.688   2.690
  2.692   2.693   2.695   2.696   2.700   2.705   2.706   2.708
  2.709   2.712   2.718   2.720   2.721   2.723   2.725   2.729
  2.731   2.734   2.736   2.738   2.740   2.744   2.745   2.749
  2.749   2.752   2.757   2.758   2.759   2.761   2.763   2.765
  2.766   2.767   2.770   2.774   2.776   2.778   2.779   2.782
  2.785   2.789   2.790   2.791   2.792   2.793   2.797   2.801
  2.802   2.803   2.805   2.810   2.813   2.815   2.818   2.820
  2.821   2.827   2.828   2.831   2.833   2.836   2.839   2.844
  2.847   2.848   2.849   2.853   2.856   2.860   2.864   2.865
  2.870   2.872   2.874   2.874   2.876   2.877   2.878   2.881
  2.883   2.884   2.886   2.887   2.890   2.892   2.893   2.896
  2.897   2.898   2.899   2.901   2.903   2.904   2.905   2.908
  2.909   2.912   2.913   2.914   2.916   2.918   2.919   2.921
  2.922   2.924   2.926   2.927   2.929   2.931   2.935   2.937
  2.938   2.940   2.942   2.946   2.949   2.949   2.952   2.955
  2.957   2.959   2.960   2.967   2.969   2.972   2.979   2.980
  2.983   2.988   2.995   2.997   3.000   3.002   3.003   3.010
  3.010   3.014   3.016   3.020   3.022   3.023   3.026   3.028
  3.030   3.030   3.032   3.034   3.038   3.042   3.043   3.045
  3.052   3.055   3.057   3.060   3.061   3.064   3.069   3.072
  3.074   3.076   3.080   3.086   3.086   3.093   3.099   3.101
  3.114   3.116   3.120   3.127   3.133   3.141   3.148   3.156
  3.163   3.168   3.172   3.173   3.176   3.181   3.186   3.192
  3.196   3.197   3.205   3.211   3.213   3.220   3.223   3.235
  3.238   3.241   3.244   3.255   3.257   3.265   3.274   3.281
  3.286   3.298   3.302   3.307   3.313   3.316   3.326   3.329
  3.332   3.342   3.343   3.352   3.355   3.360   3.366   3.389
  3.392   3.407   3.413   3.424   3.425   3.431   3.435   3.438
  3.440   3.444   3.473   3.477   3.489   3.492   3.494   3.499
  3.501   3.503   3.505   3.510   3.514   3.522   3.533   3.545
  3.551   3.551   3.571   3.574   3.584   3.586   3.600   3.604
  3.615   3.638   3.698   3.699   3.833   3.887   3.964   4.023
  4.071   4.079   4.081   4.087   4.092   4.093   4.096   4.099
  4.100   4.104   4.107   4.112   4.117   4.119   4.121   4.130
  4.131   4.133   4.135   4.136   4.138   4.142   4.148   4.152
  4.160   4.161   4.164   4.165   4.168   4.173   4.176   4.181
  4.185   4.194   4.197   4.206   4.216   4.226   4.233   4.239
  4.242   4.248   4.253   4.256   4.258   4.265   4.268   4.270
  4.276   4.280   4.281   4.286   4.291   4.292   4.298   4.304
  4.310   4.317   4.323   4.333   4.375   4.378   4.390   4.391
  4.396   4.399   4.403   4.408   4.413   4.416   4.420   4.421
  4.424   4.425   4.427   4.432   4.437   4.447   4.455   4.462
  4.466   4.478   4.505   4.526   4.534   4.540   4.552   4.555
  4.557   4.563   4.584   4.617   4.629   4.632   4.633   4.635
  4.650   4.657   4.674   4.682   4.692   4.697   4.699   4.703
  4.706   4.710   4.714   4.718   4.744   4.749   4.782   4.783
  4.842   4.851   4.855   4.855   4.882   4.885   4.891   4.901
  4.907   4.916   4.962   4.969   4.970   4.974   4.985   4.991
  4.994   5.001   5.003   5.013   5.159   5.174   5.184   5.185
  5.197   5.205   5.227   5.233   5.305   5.323   5.338   5.347
  5.373   5.381
 --------------------------------------------------------------
 
          Ground-State Mulliken Net Atomic Charges

     Atom                 Charge (a.u.)
  ----------------------------------------
      1 O                    -0.487788
      2 C                    -0.092356
      3 H                     0.141666
      4 H                     0.129974
      5 H                     0.129811
      6 O                    -0.458613
      7 C                     0.591547
      8 C                    -0.260218
      9 H                     0.128254
     10 H                     0.130359
     11 C                    -0.177177
     12 H                     0.122913
     13 H                     0.117340
     14 C                    -0.173125
     15 H                     0.111924
     16 H                     0.114704
     17 C                     0.005076
     18 C                     0.082724
     19 C                    -0.122869
     20 H                     0.088507
     21 C                    -0.097139
     22 H                     0.095650
     23 C                    -0.071783
     24 H                     0.098336
     25 C                    -0.094243
     26 H                     0.088636
     27 C                    -0.097539
     28 H                     0.095179
     29 C                     0.007731
     30 C                    -0.008878
     31 C                    -0.010285
     32 C                    -0.023213
     33 C                    -0.022734
     34 C                    -0.012117
     35 C                    -0.006760
     36 C                    -0.006935
     37 C                     0.015194
     38 C                    -0.011893
     39 C                    -0.086982
     40 C                     0.001622
     41 C                     0.015233
     42 C                     0.008138
     43 C                     0.005662
     44 C                     0.021015
     45 C                    -0.060138
     46 C                     0.032881
     47 C                    -0.001631
     48 C                     0.016870
     49 C                    -0.007174
     50 C                    -0.013342
     51 C                    -0.026219
     52 C                    -0.018772
     53 C                     0.070434
     54 C                     0.021947
     55 C                     0.027787
     56 C                     0.014961
     57 C                    -0.023727
     58 C                    -0.002950
     59 C                     0.055420
     60 C                     0.016412
     61 C                     0.017911
     62 C                    -0.011007
     63 C                    -0.030548
     64 C                    -0.022636
     65 C                    -0.026512
     66 C                    -0.000936
     67 C                    -0.002604
     68 C                    -0.023573
     69 C                     0.016870
     70 C                    -0.009499
     71 C                    -0.011240
     72 C                    -0.016225
     73 C                     0.038267
     74 C                    -0.023254
     75 C                    -0.003681
     76 C                    -0.013381
     77 C                    -0.017622
     78 C                    -0.007805
     79 C                    -0.001387
     80 C                    -0.014373
     81 C                     0.030817
     82 C                     0.007821
     83 C                    -0.014635
     84 C                    -0.013113
     85 C                     0.024313
     86 C                     0.003381
     87 C                     0.012811
     88 C                    -0.010517
     89 O                    -0.457835
     90 C                    -0.095771
     91 H                     0.127148
     92 H                     0.127826
     93 H                     0.138664
     94 O                    -0.473196
     95 C                     0.593980
     96 C                    -0.262646
     97 H                     0.137887
     98 H                     0.126057
     99 C                    -0.186636
    100 H                     0.106707
    101 H                     0.128900
    102 C                    -0.190430
    103 H                     0.120475
    104 H                     0.110913
    105 C                     0.003120
    106 C                     0.107349
    107 C                    -0.090178
    108 H                     0.091180
    109 C                    -0.083601
    110 H                     0.089851
    111 C                    -0.076399
    112 H                     0.093295
    113 C                    -0.111315
    114 H                     0.087104
    115 C                    -0.106182
    116 H                     0.092322
    117 C                    -0.013464
    118 C                     0.032535
    119 C                    -0.031934
    120 C                    -0.023586
    121 C                     0.015787
    122 C                    -0.009733
    123 C                    -0.003079
    124 C                    -0.009752
    125 C                    -0.032663
    126 C                     0.028619
    127 C                    -0.088974
    128 C                     0.024121
    129 C                    -0.003246
    130 C                     0.013170
    131 C                     0.016010
    132 C                     0.001636
    133 C                    -0.095345
    134 C                     0.031075
    135 C                     0.018916
    136 C                    -0.016853
    137 C                     0.030506
    138 C                    -0.040445
    139 C                     0.042221
    140 C                    -0.018506
    141 C                     0.020143
    142 C                    -0.035138
    143 C                    -0.003276
    144 C                    -0.004636
    145 C                     0.015612
    146 C                    -0.006019
    147 C                     0.028390
    148 C                     0.069053
    149 C                    -0.001899
    150 C                     0.002962
    151 C                     0.007510
    152 C                    -0.019559
    153 C                    -0.000480
    154 C                    -0.002073
    155 C                    -0.001688
    156 C                    -0.003293
    157 C                     0.013927
    158 C                     0.046319
    159 C                    -0.016014
    160 C                    -0.051699
    161 C                    -0.020063
    162 C                    -0.014209
    163 C                     0.006471
    164 C                    -0.016268
    165 C                     0.000669
    166 C                    -0.006782
    167 C                    -0.010816
    168 C                    -0.021667
    169 C                     0.013229
    170 C                     0.006003
    171 C                    -0.001098
    172 C                    -0.033243
    173 C                     0.013404
    174 C                    -0.011989
    175 C                     0.010209
    176 C                     0.007454
  ----------------------------------------
  Sum of atomic charges =     0.000000

 -----------------------------------------------------------------
                    Cartesian Multipole Moments
 -----------------------------------------------------------------
    Charge (ESU x 10^10)
                 0.0000
    Dipole Moment (Debye)
         X       5.5709      Y       3.3745      Z      -1.1563
       Tot       6.6151
    Quadrupole Moments (Debye-Ang)
        XX    -774.5958     XY       3.6217     YY    -794.4234
        XZ     -28.6320     YZ       3.7596     ZZ    -814.9487
    Octopole Moments (Debye-Ang^2)
       XXX    1038.0513    XXY     311.9636    XYY     173.6514
       YYY     224.6144    XXZ    -384.8696    XYZ      23.7981
       YYZ      30.9203    XZZ     -14.1763    YZZ     106.7406
       ZZZ     -19.0664
    Hexadecapole Moments (Debye-Ang^3)
      XXXX -177442.0184   XXXY    1804.8682   XXYY  -34875.8067
      XYYY    -551.1475   YYYY  -35729.3101   XXXZ   -5402.7458
      XXYZ     726.0993   XYYZ     260.6765   YYYZ      18.9859
      XXZZ  -36005.1967   XYZZ     -26.1373   YYZZ   -9086.8933
      XZZZ    -255.7413   YZZZ      34.4462   ZZZZ  -20237.7372
 -----------------------------------------------------------------
Archival summary:
1\1\mn366\SP\ProcedureUnspecified\6-31G**\428\afmv_a\SatOct617:14:132018SatOct617:14:132018\0\\#,ProcedureUnspecified,6-31G**,\\0,1\O\C,1,1.35517\O,2,1.22169,1,124.269\C,1,1.46589,2,115.377,3,-8.49939,0\H,4,1.09659,1,106.1,2,-60.6148,0\H,4,1.09659,1,111.458,2,-178.191,0\H,4,1.09761,1,113.817,2,54.1851,0\C,2,1.5605,1,112.328,3,174.407,0\H,8,1.09657,2,111.269,1,-100.055,0\H,8,1.09693,2,101.5,1,16.0097,0\C,8,1.54027,2,112.524,1,131.72,0\H,11,1.09636,8,114.753,2,-169.026,0\H,11,1.0966,8,106.174,2,74.8286,0\C,11,1.59211,8,115.823,2,-45.071,0\H,14,1.09686,11,109.031,8,-75.0509,0\H,14,1.0975,11,108.659,8,42.7167,0\C,14,1.55204,11,116.279,8,163.845,0\C,17,1.50713,14,114.431,11,-56.8587,0\C,18,1.33934,17,123.311,14,103.19,0\H,19,1.08593,18,122.641,17,5.82941,0\C,19,1.40735,18,120.018,17,-176.323,0\H,21,1.08577,19,119.697,18,176.624,0\C,18,1.41758,17,116.634,14,-71.4984,0\H,23,1.08545,18,118.419,17,0.553398,0\C,23,1.403,18,120.555,17,176.75,0\H,25,1.08655,23,118.379,18,-175.271,0\C,25,1.36716,23,121.21,18,-1.67935,0\H,27,1.08597,25,119.76,23,-175.531,0\C,17,1.53094,14,119.989,11,152.491,0\C,29,1.48896,17,63.2054,14,-106.19,0\C,30,1.46737,29,111.202,17,-124.013,0\C,31,1.38891,30,110.666,29,-140.263,0\C,32,1.39633,31,107.898,30,12.4553,0\C,33,1.38453,32,118.482,31,142.888,0\C,31,1.40276,30,127.009,29,14.4955,0\C,35,1.38397,31,118.119,30,-15.6965,0\C,36,1.40618,35,122.247,31,6.57506,0\C,33,1.40891,32,108.997,31,-2.38944,0\C,38,1.41244,33,115.04,32,138.131,0\C,39,1.3763,38,123.603,33,5.35767,0\C,40,1.35568,39,109.98,38,-146.99,0\C,41,1.36615,40,108.611,39,3.66198,0\C,40,1.38978,39,120.537,38,-2.31943,0\C,43,1.3842,40,124.519,39,-141.864,0\C,44,1.35586,43,109.489,40,144.177,0\C,45,1.38929,44,120.184,43,-143.397,0\C,44,1.39547,43,115.302,40,2.85066,0\C,42,1.39862,41,123.775,40,139.239,0\C,48,1.36904,42,121.572,41,-134.684,0\C,47,1.40061,44,122.501,43,-2.7225,0\C,50,1.39521,47,108.883,44,143.627,0\C,47,1.40602,44,119.349,43,141.843,0\C,52,1.39731,47,119.019,44,-6.87101,0\C,53,1.37517,52,117.651,47,-133.549,0\C,54,1.39242,53,121.4,52,-1.64862,0\C,55,1.36283,54,122.258,53,3.42282,0\C,56,1.39951,55,118.121,54,-1.83171,0\C,46,1.40853,45,117.378,44,135.622,0\C,58,1.4029,46,107.797,45,-138.206,0\C,51,1.4103,50,120.109,47,-142.412,0\C,49,1.41215,48,119.201,42,-3.3537,0\C,61,1.38733,49,123.247,48,-2.50291,0\C,61,1.41341,49,118.747,48,147.702,0\C,34,1.41537,33,122.697,32,5.19605,0\C,64,1.40342,34,118.534,33,-2.8645,0\C,65,1.39579,64,119.028,34,-0.149581,0\C,66,1.373,65,107.819,64,-143.18,0\C,65,1.40501,64,118.418,34,-134.301,0\C,67,1.40512,66,110.389,65,3.49823,0\C,69,1.36023,67,121.655,66,133.952,0\C,70,1.37385,69,124.008,67,-134.355,0\C,70,1.39133,69,121.015,67,10.0241,0\C,72,1.38052,70,118.859,69,-8.84913,0\C,73,1.37006,72,119.516,70,1.43984,0\C,71,1.39523,70,110.419,69,145.157,0\C,75,1.36416,71,105.845,70,3.31923,0\C,73,1.39611,72,120.641,70,-135.43,0\C,77,1.39834,73,121.312,72,-3.05947,0\C,78,1.39741,77,118.67,73,137.639,0\C,79,1.38706,78,110.008,77,-138.741,0\C,80,1.39249,79,109.424,78,-0.490431,0\C,78,1.40075,77,117.824,73,6.14396,0\C,75,1.41512,71,122.036,70,-145.546,0\C,49,1.41943,48,106.319,42,144.664,0\C,84,1.39227,49,111.867,48,-5.08739,0\C,85,1.38102,84,123.228,49,-139.683,0\C,86,1.34549,85,116.236,84,-1.51693,0\C,39,1.42742,38,119.846,33,-138.102,0\C,6,2.89745,4,112.67,1,-33.7254,0\C,89,1.36624,6,115.8,4,84.8467,0\C,89,1.36981,6,98.6971,4,-47.163,0\C,90,1.37393,89,123.937,6,-125.056,0\C,91,1.37708,89,122.869,6,-83.3975,0\C,93,1.38563,91,120.669,89,-2.42166,0\C,94,1.39839,93,117.216,91,2.71369,0\C,95,1.39594,94,121.849,93,0.193485,0\C,96,1.37265,95,122.156,94,-139.13,0\C,97,1.39832,96,120.178,95,-4.68096,0\C,98,1.37875,97,117.057,96,7.82606,0\C,99,1.3679,98,123.401,97,-6.92873,0\C,100,1.36629,99,122.293,98,142.156,0\C,101,1.40179,100,118.039,99,1.13521,0\C,102,1.40312,101,121.73,100,0.51838,0\C,103,1.40272,102,105.137,101,-135.111,0\C,104,1.40298,103,108.233,102,-9.27879,0\C,105,1.34833,104,109.878,103,7.4205,0\C,93,1.40383,91,107.376,89,-137.876,0\C,107,1.38829,93,122.749,91,140.957,0\C,108,1.40509,107,113.776,93,-139.72,0\C,109,1.34638,108,128.154,107,-5.79236,0\C,109,1.38823,108,104.27,107,143.062,0\C,110,1.40173,109,117.72,108,4.65844,0\C,111,1.40392,109,120.937,108,-148.265,0\C,113,1.40056,111,118.656,109,-0.0773671,0\C,114,1.38535,113,121.132,111,-0.964603,0\C,115,1.40536,114,121.083,113,135.944,0\C,94,1.40588,93,124.303,91,-134.863,0\C,112,1.40594,110,109.306,109,137.557,0\C,114,1.40643,113,108.138,111,141.496,0\C,119,1.4047,114,119.534,113,-140.666,0\C,120,1.37491,119,122.904,114,141.372,0\C,121,1.39675,120,115.819,119,-5.61798,0\C,122,1.39335,121,122.821,120,1.96584,0\C,123,1.37863,122,109.548,121,-144.03,0\C,123,1.39084,122,121.93,121,3.26153,0\C,97,1.40655,96,107.54,95,143.147,0\C,126,1.37706,97,118.043,96,-140.822,0\C,127,1.38238,126,121.326,97,142.58,0\C,128,1.37712,127,106.351,126,-146.145,0\C,128,1.38328,127,120.383,126,-1.71247,0\C,129,1.40158,128,108.935,127,-3.0325,0\C,130,1.40785,128,117.607,127,-135.911,0\C,120,1.4084,119,123.032,114,-4.56591,0\C,91,1.40963,89,116.797,6,135.017,0\C,134,1.40577,91,107.403,89,144.924,0\C,132,1.40965,130,105.967,128,136.848,0\C,136,1.3941,132,109.669,130,2.87599,0\C,125,1.4114,123,119.968,122,-138.28,0\C,129,1.41391,128,121.962,127,143.353,0\C,139,1.39614,129,118.052,128,-0.434935,0\C,106,1.41658,105,119.186,104,135.287,0\C,141,1.3615,106,121.911,105,-141.882,0\C,103,1.42112,102,120.191,101,0.119768,0\C,127,1.42208,126,120.47,97,-7.96346,0\C,144,1.36627,127,120.532,126,8.4245,0\C,122,1.43436,121,120.532,120,-138.814,0\C,124,1.45247,123,111.462,122,-10.7074,0\C,147,1.45411,124,127.524,123,-149.127,0\C,143,1.47336,103,121.758,102,-146.038,0\C,148,1.52763,147,118.827,124,8.76562,0\C,150,1.40897,148,118.623,147,83.2311,0\H,151,1.08641,150,119.268,148,-14.8245,0\C,150,1.42844,148,124.574,147,-111.464,0\H,153,1.08662,150,117.38,148,6.73958,0\C,153,1.39589,150,120.121,148,-164.595,0\H,155,1.08559,153,118.216,150,173.097,0\C,155,1.3719,153,125.142,150,-9.03863,0\H,157,1.08647,155,126.843,153,-178.478,0\C,157,1.42128,155,115.909,153,11.7975,0\H,159,1.08579,157,121.78,155,169.714,0\C,148,1.58581,147,114.613,124,149.252,0\H,161,1.09743,148,114.492,147,57.83,0\H,161,1.09746,148,100.16,147,-60.1961,0\C,161,1.46804,148,112.405,147,-172.561,0\H,164,1.09715,161,107.262,148,77.3429,0\H,164,1.09727,161,109.91,148,-44.1628,0\C,164,1.53457,161,109.556,148,-164.1,0\H,167,1.09655,164,111.266,161,57.4219,0\H,167,1.09692,164,104.047,161,-62.1663,0\C,167,1.54199,164,115.748,161,-175.148,0\O,170,1.21304,167,122.718,164,122.432,0\O,170,1.39241,167,111.302,164,-59.0151,0\C,172,1.49998,170,119.81,167,-177.717,0\H,173,1.09719,172,116.082,170,163.506,0\H,173,1.09723,172,108.119,170,37.0057,0\H,173,1.09724,172,106.446,170,-80.6453,0\\\@

 Total job time:  855.71s(wall), 7266.24s(cpu) 
 Sat Oct  6 17:14:13 2018

        *************************************************************
        *                                                           *
        *  Thank you very much for using Q-Chem.  Have a nice day.  *
        *                                                           *
        *************************************************************


