
Running Job 1 of 1 ./9/27.qcin
qchem ./9/27.qcin_143766.0 /tmpu/cab_g/afmv_a/scratch_qchem/qchem143766/ 1
/tmpu/appuserlic/qchem4.4/serial-multicore/exe/qcprog.exe_s ./9/27.qcin_143766.0 /tmpu/cab_g/afmv_a/scratch_qchem/qchem143766/
Check license passed

                  Welcome to Q-Chem
     A Quantum Leap Into The Future Of Chemistry


 Q-Chem 4.4, Q-Chem, Inc., Pleasanton, CA (2016)

 Y. Shao,  Z. Gan,  E. Epifanovsky,  A. T. B. Gilbert,  M. Wormit,  
 J. Kussmann,  A. W. Lange,  A. Behn,  J. Deng,  X. Feng,  D. Ghosh,  
 M. Goldey,  P. R. Horn,  L. D. Jacobson,  I. Kaliman,  F. Rob,  
 R. Z. Khaliullin,  T. Kus,  A. Landau,  J. Liu,  E. I. Proynov,  Y. M. Rhee,  
 R. M. Richard,  M. A. Rohrdanz,  R. P. Steele,  E. J. Sundstrom,  
 H. L. Woodcock III,  P. M. Zimmerman,  D. Zuev,  B. Albrecht,  E. Alguire,  
 B. Austin,  S. A. Baeppler,  G. J. O. Beran,  Y. A. Bernard,  E. Berquist,  
 K. Brandhorst,  K. B. Bravaya,  S. T. Brown,  D. Casanova,  C.-M. Chang,  
 Y. Chen,  S. H. Chien,  K. D. Closser,  M. P. Coons,  D. L. Crittenden,  
 S. Dasgupta,  M. Diedenhofen,  R. A. DiStasio Jr.,  H. Do,  A. D. Dutoi,  
 R. G. Edgar,  P.-T. Fang,  S. Fatehi,  Q. Feng,  L. Fusti-Molnar,  
 A. Ghysels,  A. Golubeva-Zadorozhnaya,  J. Gomes,  A. Gunina,  
 M. W. D. Hanson-Heine,  P. H. P. Harbach,  A. W. Hauser,  J. E. Herr,  
 E. G. Hohenstein,  Z. C. Holden,  K. Hui,  T.-C. Jagau,  H. Ji,  B. Kaduk,  
 K. Khistyaev,  Jaehoon Kim,  Jihan Kim,  R. A. King,  P. Klunzinger,  
 K. Koh,  D. Kosenkov,  T. Kowalczyk,  C. M. Krauter,  A. Kunitsa,  
 K. U. Lao,  A. Laurent,  K. V. Lawler,  J. Lee,  D. Lefrancois,  S. Lehtola,  
 S. V. Levchenko,  C. Y. Lin,  Y.-S. Lin,  F. Liu,  E. Livshits,  
 R. C. Lochan,  A. Luenser,  P. Manohar,  S. F. Manzer,  S.-P. Mao,  Y. Mao,  
 N. Mardirossian,  A. V. Marenich,  L. A. Martinez-Martinez,  S. A. Maurer,  
 N. J. Mayhall,  J.-M. Mewes,  A. F. Morrison,  K. Nanda,  T. S. Nguyen-Beck,  
 C. M. Oana,  R. Olivares-Amaya,  D. P. O'Neill,  J. A. Parkhill,  
 T. M. Perrine,  R. Peverati,  P. A. Pieniazek,  F. Plasser,  A. Prociuk,  
 D. R. Rehn,  E. Rosta,  N. J. Russ,  N. Sergueev,  S. M. Sharada,  
 S. Sharma,  D. W. Small,  A. Sodt,  T. Stauch,  T. Stein,  D. Stuck,  
 Y.-C. Su,  A. J. W. Thom,  T. Tsuchimochi,  L. Vogt,  O. Vydrov,  T. Wang,  
 M. A. Watson,  J. Wenzel,  A. White,  C. F. Williams,  V. Vanovschi,  
 K. Yao,  S. Yeganeh,  S. R. Yost,  Z.-Q. You,  I. Y. Zhang,  X. Zhang,  
 Y. Zhao,  B. R. Brooks,  G. K. L. Chan,  D. M. Chipman,  C. J. Cramer,  
 W. A. Goddard III,  M. S. Gordon,  W. J. Hehre,  A. Klamt,  
 H. F. Schaefer III,  M. W. Schmidt,  C. D. Sherrill,  D. G. Truhlar,  
 A. Warshel,  X. Xu,  A. Aspuru-Guzik,  R. Baer,  A. T. Bell,  N. A. Besley,  
 J.-D. Chai,  A. Dreuw,  B. D. Dunietz,  T. R. Furlani,  S. R. Gwaltney,  
 C.-P. Hsu,  Y. Jung,  J. Kong,  D. S. Lambrecht,  W. Liang,  C. Ochsenfeld,  
 V. A. Rassolov,  L. V. Slipchenko,  J. E. Subotnik,  T. Van Voorhis,  
 J. M. Herbert,  A. I. Krylov,  P. M. W. Gill,  M. Head-Gordon

 Contributors to earlier versions of Q-Chem not listed above: 
 R. D. Adamson,  J. Baker,  E. F. C. Byrd,  A. K. Chakraborty,  C.-L. Cheng,  
 H. Dachsel,  R. J. Doerksen,  G. Hawkins,  A. Heyden,  S. Hirata,  
 G. Kedziora,  F. J. Keil,  C. Kelley,  P. P. Korambath,  W. Kurlancheek,  
 A. M. Lee,  M. S. Lee,  D. Liotard,  I. Lotan,  P. E. Maslen,  N. Nair,  
 D. Neuhauser,  R. Olson,  B. Peters,  J. Ritchie,  N. E. Schultz,  
 N. Shenvi,  A. C. Simmonett,  K. S. Thanthiriwatte,  Q. Wu,  W. Zhang

 Please cite Q-Chem as follows:
 Y. Shao et al., Mol. Phys. 113, 184-215 (2015)
 DOI: 10.1080/00268976.2014.952696

 Q-Chem 4.4.2 for Intel X86 Linux

 Parts of Q-Chem use Armadillo 5.200.1 (Boston Tea Smuggler).
 http://arma.sourceforge.net/

 Q-Chem begins on Sat Oct  6 16:16:06 2018  

Host: 
0

     Scratch files written to /tmpu/cab_g/afmv_a/scratch_qchem/qchem143766//
 Dec716 11556_ 22328  22283 4050   
Processing $rem in /tmpu/appuserlic/qchem4.4/serial-multicore/config/preferences.
 MEM_TOTAL  2000 
FILE_GEOM_ORG=        593

Checking the input file for inconsistencies... 	...done.

--------------------------------------------------------------
User input:
--------------------------------------------------------------
$comment
SP
$end

$rem
MEM_STATIC 5000
MEM_TOTAL 20000
JOBTYPE SP
EXCHANGE B3LYP
BASIS 6-31g(d,p)
$end

$molecule
0 1
O          17.710000    -11.322000    -12.088000
C          18.796000    -11.588000    -13.060000
H          18.456000    -11.379000    -14.082000
H          19.081000    -12.637000    -12.912000
H          19.644000    -10.941000    -12.804000
O          18.948000    -11.860000    -10.229000
C          17.884000    -11.660000    -10.773000
C          16.603000    -11.463000    -10.012000
H          15.821000    -11.201000    -10.735000
H          16.820000    -10.676000     -9.279000
C          16.263000    -12.792000     -9.341000
H          17.172000    -13.334000     -9.051000
H          15.637000    -12.591000     -8.463000
C          15.482000    -13.655000    -10.344000
H          14.537000    -13.120000    -10.503000
H          16.022000    -13.685000    -11.298000
C          15.133000    -15.039000     -9.864000
C          13.918000    -15.096000     -8.900000
C          12.601000    -15.235000     -9.401000
H          12.361000    -15.456000    -10.437000
C          11.552000    -15.356000     -8.461000
H          10.500000    -15.417000     -8.723000
C          11.765000    -15.413000     -7.099000
H          10.870000    -15.518000     -6.492000
C          13.072000    -15.278000     -6.589000
H          13.241000    -15.297000     -5.516000
C          14.129000    -15.041000     -7.474000
H          15.163000    -15.034000     -7.141000
C          17.530000    -19.598000     -7.884000
C          15.614000    -20.376000     -9.061000
C          17.964000    -22.030000    -12.650000
C          20.351000    -16.535000    -10.879000
C          17.430000    -19.427000    -14.687000
C          16.199000    -19.463000     -8.197000
C          20.108000    -17.394000    -13.520000
C          18.476000    -22.165000    -10.324000
C          14.643000    -17.907000    -12.163000
C          19.501000    -15.859000    -11.798000
C          15.437000    -16.167000    -10.817000
C          15.437000    -17.069000    -13.020000
C          18.029000    -16.092000    -13.506000
C          19.583000    -18.343000    -14.400000
C          14.728000    -18.333000     -9.699000
C          19.250000    -20.771000    -14.020000
C          16.336000    -15.900000     -9.666000
C          17.813000    -15.692000    -10.034000
C          17.894000    -20.695000    -14.336000
C          21.164000    -19.929000    -10.470000
C          20.212000    -21.497000    -11.852000
C          19.845000    -21.825000    -10.524000
C          17.765000    -21.589000     -9.230000
C          18.639000    -16.408000     -9.124000
C          14.714000    -17.435000    -10.817000
C          16.394000    -21.465000     -9.512000
C          19.394000    -16.225000    -13.133000
C          14.727000    -19.740000     -9.987000
C          16.183000    -17.626000    -14.059000
C          20.536000    -18.012000     -9.089000
C          17.573000    -22.248000    -11.352000
C          15.998000    -16.062000    -12.201000
C          19.633000    -20.214000     -8.657000
C          17.426000    -17.137000    -14.305000
C          14.594000    -19.253000    -12.428000
C          20.954000    -19.426000    -12.861000
C          21.009000    -18.028000    -12.626000
C          15.395000    -19.770000    -13.447000
C          19.923000    -16.808000     -9.537000
C          18.225000    -15.419000    -11.354000
C          21.168000    -18.522000    -10.223000
C          16.539000    -17.030000     -8.648000
C          15.458000    -21.236000    -11.737000
C          17.296000    -15.563000    -12.438000
C          16.161000    -19.020000    -14.287000
C          19.640000    -18.859000     -8.344000
C          17.090000    -21.524000    -13.531000
C          18.317000    -20.661000     -8.361000
C          19.285000    -21.640000    -12.942000
C          14.634000    -20.200000    -11.371000
C          15.852000    -21.043000    -13.063000
C          15.658000    -18.170000     -8.608000
C          17.870000    -17.197000     -8.242000
C          21.046000    -20.362000    -11.821000
C          16.316000    -21.874000    -10.860000
C          18.167000    -18.256000    -14.666000
C          21.150000    -17.624000    -11.282000
C          20.113000    -19.609000    -13.965000
C          18.375000    -18.480000     -7.951000
C          20.417000    -20.848000     -9.684000
O          12.859000     -9.359000     -5.627000
C          11.393000     -9.230000     -5.639000
H          11.101000     -8.174000     -5.573000
H          10.971000     -9.684000     -4.734000
H          10.997000     -9.686000     -6.555000
O          13.421000     -7.094000     -5.946000
C          13.694000     -8.238000     -5.847000
C          15.123000     -8.755000     -6.068000
H          15.111000     -9.551000     -6.822000
H          15.457000     -9.236000     -5.140000
C          16.206000     -7.780000     -6.463000
H          15.956000     -7.437000     -7.474000
H          16.348000     -6.874000     -5.861000
C          17.559000     -8.444000     -6.643000
H          17.378000     -9.413000     -7.123000
H          18.139000     -7.934000     -7.422000
C          18.327000     -8.617000     -5.238000
C          18.684000     -7.339000     -4.588000
C          17.965000     -6.769000     -3.522000
H          17.354000     -7.487000     -2.982000
C          18.172000     -5.440000     -3.093000
H          17.597000     -5.044000     -2.261000
C          19.323000     -4.764000     -3.558000
H          19.595000     -3.817000     -3.102000
C          20.099000     -5.300000     -4.608000
H          20.775000     -4.655000     -5.163000
C          19.786000     -6.574000     -5.161000
H          20.298000     -6.907000     -6.059000
C          22.846000    -10.677000     -2.881000
C          21.112000    -10.808000     -1.096000
C          20.641000    -15.334000     -1.271000
C          21.071000    -12.869000     -7.037000
C          17.747000    -15.221000     -3.225000
C          21.697000    -10.099000     -2.213000
C          19.448000    -15.053000     -6.422000
C          22.634000    -13.913000     -1.477000
C          17.416000    -11.285000     -2.684000
C          19.728000    -12.714000     -7.133000
C          18.142000     -9.925000     -4.505000
C          16.906000    -11.895000     -3.856000
C          17.735000    -13.269000     -6.089000
C          18.881000    -15.723000     -5.346000
C          19.403000     -9.916000     -2.220000
C          19.928000    -16.318000     -3.202000
C          19.448000     -9.623000     -5.164000
C          19.913000    -10.459000     -6.299000
C          18.820000    -15.834000     -2.539000
C          23.167000    -14.521000     -4.917000
C          22.295000    -15.711000     -3.103000
C          23.066000    -14.632000     -2.639000
C          22.816000    -12.562000     -1.322000
C          21.269000    -10.696000     -6.180000
C          18.295000    -10.219000     -3.017000
C          21.654000    -12.096000     -0.690000
C          18.871000    -13.776000     -6.765000
C          19.686000    -10.684000     -1.067000
C          16.728000    -13.245000     -3.885000
C          22.987000    -12.393000     -5.939000
C          21.432000    -14.308000     -0.756000
C          17.437000    -11.137000     -4.988000
C          23.726000    -12.556000     -3.634000
C          17.170000    -13.968000     -5.058000
C          17.726000    -12.115000     -1.560000
C          21.215000    -15.940000     -5.298000
C          20.876000    -15.164000     -6.425000
C          17.577000    -13.489000     -1.584000
C          21.868000    -11.833000     -6.624000
C          19.133000    -11.493000     -6.726000
C          22.809000    -13.760000     -5.967000
C          20.691000     -9.497000     -4.279000
C          19.423000    -12.984000     -0.325000
C          17.930000    -11.895000     -6.064000
C          17.048000    -14.083000     -2.758000
C          23.474000    -11.756000     -4.768000
C          19.270000    -15.258000     -1.298000
C          23.312000    -11.890000     -2.473000
C          21.073000    -16.020000     -2.414000
C          18.830000    -11.807000     -0.779000
C          18.619000    -14.084000     -0.828000
C          20.619000     -9.589000     -2.875000
C          21.742000    -10.097000     -4.993000
C          22.354000    -15.591000     -4.503000
C          20.853000    -13.144000     -0.247000
C          17.814000    -15.141000     -4.607000
C          21.684000    -14.065000     -6.753000
C          19.994000    -16.237000     -4.612000
C          22.861000    -10.607000     -4.291000
C          23.641000    -13.951000     -3.704000
$end

--------------------------------------------------------------
 ----------------------------------------------------------------
             Standard Nuclear Orientation (Angstroms)
    I     Atom           X                Y                Z
 ----------------------------------------------------------------
    1      O       0.7626908220     4.0852617109     3.9452148534
    2      C       1.4505297017     3.5079227649     5.1235583589
    3      H       2.0435131814     4.2756818658     5.6360830470
    4      H       2.0628579403     2.6827761404     4.7392184359
    5      H       0.6844073474     3.1083523575     5.7993164722
    6      O      -0.2949482314     2.1384003559     3.3376792599
    7      C       0.0888398465     3.2597448094     3.0860340178
    8      C      -0.3771652988     4.0306958868     1.8829693310
    9      H       0.0411232751     5.0422827113     1.9509676069
   10      H      -1.4729879836     3.9933819165     1.9220501588
   11      C       0.1757779487     3.3241725447     0.6471859632
   12      H       0.2335347701     2.2394802880     0.8029160433
   13      H      -0.4703473963     3.5572893449    -0.2079979913
   14      C       1.5936390923     3.8528794898     0.3809572202
   15      H       1.4575263168     4.9095947812     0.1175998486
   16      H       2.1810157114     3.8044645235     1.3057602795
   17      C       2.3169679132     3.1992033196    -0.7667186405
   18      C       1.8863913472     3.7069809728    -2.1686942736
   19      C       2.5229413641     4.8238351113    -2.7622024112
   20      H       3.4200452973     5.2953663732    -2.3715621649
   21      C       2.1298839884     5.1821593793    -4.0720694344
   22      H       2.5086770148     6.0463492360    -4.6094340543
   23      C       1.2160375871     4.4566610683    -4.8084110370
   24      H       1.0141068330     4.8380300836    -5.8055472587
   25      C       0.5777635165     3.3417093375    -4.2287017574
   26      H      -0.1610055393     2.7828848142    -4.7963164456
   27      C       0.8488344650     3.0168032628    -2.8954352486
   28      H       0.4634945224     2.1098871852    -2.4381493896
   29      C       3.8990044512    -1.7855108498    -2.5274784315
   30      C       5.5433170812    -0.2877349414    -3.3728022175
   31      C       8.8150044765    -1.5211697941    -0.3871972450
   32      C       3.3016087785    -1.1248996447     2.5239318909
   33      C       8.4012624717     1.0514421525     1.7153296456
   34      C       4.2129682380    -0.5877208786    -3.1228614388
   35      C       5.7462160486    -0.3565985025     3.6218479396
   36      C       7.2592966401    -2.8917842529    -1.5669574465
   37      C       6.0131545863     2.9621593782    -0.9482103693
   38      C       3.5648288972     0.2328272533     2.8575931558
   39      C       3.7294842674     2.7505124589    -0.4901629306
   40      C       5.8718776305     3.1409125071     0.4713730698
   41      C       5.1102231977     1.8910977517     2.8728381647
   42      C       7.1043546078    -0.1145272986     3.4039323910
   43      C       4.6372883582     1.7062390855    -2.6184359052
   44      C       8.6447087312    -1.2904522872     1.8563592600
   45      C       2.6227786848     1.7610199476    -0.5101209778
   46      C       2.5015489074     0.9010662204     0.7571595468
   47      C       9.0069223076    -0.1036808945     1.2201651179
   48      C       5.3464261521    -3.6849139182     1.2540756675
   49      C       7.5542865371    -3.2494452854     0.7951948658
   50      C       6.9453270981    -3.6667882805    -0.4134615064
   51      C       6.2095098677    -2.4820240475    -2.4411298016
   52      C       2.2768158505    -0.4560776434     0.3956521666
   53      C       4.7505226174     2.6284490151    -1.5260848406
   54      C       6.5163661136    -1.2720294717    -3.0863378076
   55      C       4.7490728728     0.6451559594     3.4535639978
   56      C       5.8456128799     1.0795940431    -3.0765427061
   57      C       6.8654773712     2.6931568037     1.3423267915
   58      C       3.1242481961    -2.7446948976     0.8612050455
   59      C       8.1507685372    -1.8507388330    -1.5427853487
   60      C       4.5079373464     2.9261703083     0.7764692669
   61      C       4.5518867910    -3.3922101254    -0.9809157628
   62      C       6.4942489246     2.1096626715     2.5112622209
   63      C       7.1691517571     2.3947872763    -1.4237116197
   64      C       6.6360749517    -2.3228624393     2.8338261993
   65      C       5.4620732662    -1.7208671402     3.3553390967
   66      C       8.1121739411     1.9187489914    -0.5119289089
   67      C       2.6526851616    -1.4727887164     1.2924497217
   68      C       3.1379556885     1.2523829117     1.9647339716
   69      C       4.1654388631    -3.0444307440     1.7395901646
   70      C       2.7160844536     0.6134379597    -1.5244101942
   71      C       7.9993539340     0.4281699918    -2.1979511188
   72      C       4.1151851527     2.3029244492     1.9795005689
   73      C       8.0269204203     2.0656295589     0.8393719222
   74      C       3.3631608176    -2.8072750442    -0.5580392902
   75      C       9.1784555427    -0.2497350864    -0.1694127037
   76      C       4.8699078059    -2.7511908367    -2.2086119408
   77      C       8.5345631740    -2.1975296307     0.8154228311
   78      C       7.1286478539     1.4511346922    -2.4836820129
   79      C       8.7001161808     0.7533146926    -1.0343471496
   80      C       3.6414860174     0.6621940614    -2.6283195148
   81      C       2.3621332234    -0.6377145407    -1.0013213419
   82      C       6.5913962515    -3.2932676909     1.8226499231
   83      C       7.7360422299    -0.8990978144    -2.4831950795
   84      C       7.4337357639     1.1036496587     2.7032655980
   85      C       4.2392867623    -2.1423733566     2.7927036236
   86      C       7.6417777215    -1.3513610019     2.8996509346
   87      C       3.0131236611    -1.8080917478    -1.4397545103
   88      C       5.5871091585    -3.9138620979    -0.1279592168
   89      O      -4.3038315439     6.2397132259    -2.2852571019
   90      C      -4.1693488161     7.4179582121    -3.1568040877
   91      H      -4.9306986584     8.1680304327    -2.9068159251
   92      H      -4.3926987551     7.1418945214    -4.1946521707
   93      H      -3.1610483251     7.8363396261    -3.0468263064
   94      O      -5.8024154187     7.1331882619    -0.7029237836
   95      C      -5.0866881614     6.2863361903    -1.1074507445
   96      C      -4.7783849688     5.0232928801    -0.2902348993
   97      H      -3.6925065735     4.9095082235    -0.1892538977
   98      H      -5.1109355008     4.1538205142    -0.8712073157
   99      C      -5.3746139910     4.8747605066     1.0888909424
  100      H      -4.8990197297     5.6408464361     1.7127438475
  101      H      -6.4561182548     5.0080834613     1.2152931458
  102      C      -4.9768961452     3.5755694968     1.7655210002
  103      H      -3.9268816196     3.3905939322     1.5098345972
  104      H      -4.9028825289     3.7124636985     2.8513952849
  105      C      -5.9193623517     2.3535601904     1.3048381326
  106      C      -7.3333760350     2.5016646628     1.7071606011
  107      C      -8.3586709651     2.9252962069     0.8425661175
  108      H      -8.1163240903     2.7961678170    -0.2086421640
  109      C      -9.6371994688     3.3001566999     1.3094445558
  110      H     -10.4001709464     3.6155015670     0.6036845830
  111      C      -9.9808872643     2.9704663427     2.6403032889
  112      H     -11.0124057624     3.0846570531     2.9591434835
  113      C      -8.9994383430     2.5154568706     3.5467779964
  114      H      -9.1887820571     2.5630339757     4.6158483294
  115      C      -7.6606215791     2.2981813825     3.1140944690
  116      H      -6.8888586494     2.0894251702     3.8491045534
  117      C      -6.7093473130    -3.0643794035     1.7970416656
  118      C      -7.5654294776    -2.5265303145    -0.4806729094
  119      C      -4.1178183518    -4.4845953380    -2.7205614979
  120      C      -2.0492043074    -1.2472718381     2.2542202552
  121      C      -2.4421716833    -1.4751663904    -3.3050840821
  122      C      -7.4063735124    -2.1559418052     0.9085572215
  123      C      -0.6508758288    -1.4141620239    -0.1538983324
  124      C      -5.2993213265    -5.1589321780    -0.6753117462
  125      C      -5.5931092818     0.6335158021    -2.0724488313
  126      C      -1.8949071297    -0.1151215946     1.5253044801
  127      C      -5.4467348522     1.5168424028     0.1391175011
  128      C      -4.2833938026     1.1573565049    -1.9458775807
  129      C      -1.9048130066     0.6859040079    -0.6491540404
  130      C      -0.8129164565    -1.7616997331    -1.4884864245
  131      C      -7.1903381469    -0.3267721996    -0.4710953705
  132      C      -1.9941006285    -3.7064293458    -2.4211174798
  133      C      -5.4128585022     0.9496023312     1.5204980041
  134      C      -4.1113070045     0.6046365765     2.1452446143
  135      C      -2.6261923865    -2.8764216954    -3.3228027409
  136      C      -2.6099843344    -4.5300141688     1.5290660982
  137      C      -2.8521766542    -5.2110102077    -0.6945946842
  138      C      -4.0587733590    -5.4068303146    -0.0019498418
  139      C      -6.4042598063    -4.6460386979    -0.0441214151
  140      C      -4.2240979412    -0.5895063935     2.8310775180
  141      C      -6.2663668621     0.6623833447    -0.8211387596
  142      C      -6.9943081234    -3.7726044693    -0.9692049960
  143      C      -1.2515389463    -0.1722206061     0.2681115421
  144      C      -7.4611143765    -1.3971850460    -1.3543951903
  145      C      -3.2651641270     0.5924923721    -2.6523914441
  146      C      -3.4225477205    -2.8729654872     3.0120355551
  147      C      -5.3238104031    -4.7434205406    -2.0708117871
  148      C      -4.1413755756     1.6003501466    -0.5596826245
  149      C      -4.9778103262    -4.4212703248     1.9778086180
  150      C      -2.0157769467     0.3392668691    -1.9676064279
  151      C      -5.8036316199    -0.4785021184    -2.9485039036
  152      C      -1.0382403494    -3.6550316062    -0.1241284944
  153      C      -0.7824699047    -2.5483840355     0.7108197878
  154      C      -4.7758478811    -1.0798322974    -3.6504409393
  155      C      -3.1941675074    -1.4653038299     2.9757431732
  156      C      -2.9608380772     0.8163977503     1.4442000704
  157      C      -2.3927562767    -3.4471693319     2.2972093337
  158      C      -6.2892211739    -0.2690804589     1.8220783830
  159      C      -6.2687128682    -2.7006948825    -3.0243573902
  160      C      -2.9401533091     1.2521488093     0.0815738726
  161      C      -3.4734552291    -0.5324558933    -3.5275366989
  162      C      -4.7475852275    -3.3648571910     2.8835942961
  163      C      -3.9492180550    -3.4000013996    -3.5460164808
  164      C      -6.1822139639    -4.2144485094     1.2926009020
  165      C      -2.9139057308    -4.7225870445    -2.0440828593
  166      C      -6.7197613275    -1.4557262348    -2.5888090536
  167      C      -5.0156315348    -2.4757234437    -3.7233566918
  168      C      -7.1637131964    -0.8145487223     0.8615618157
  169      C      -5.5305263224    -1.0971218586     2.6665465960
  170      C      -1.9986105514    -4.6425720367     0.2677898303
  171      C      -6.4202215513    -3.8940224133    -2.2308849438
  172      C      -1.5732018140    -0.9408821204    -2.3668705216
  173      C      -1.4722576080    -2.4505648698     1.9285526548
  174      C      -1.1067254825    -3.1598689939    -1.4656834780
  175      C      -5.8064259465    -2.4851446738     2.7148897651
  176      C      -3.9133034545    -5.0638565709     1.3358911495
 ----------------------------------------------------------------
 Molecular Point Group                 C1    NOp =  1
 Largest Abelian Subgroup              C1    NOp =  1
 Nuclear Repulsion Energy = 35378.1657369679 hartrees
 There are      462 alpha and      462 beta electrons
 Requested basis set is 6-31G(d,p)
 There are 676 shells and 2360 basis functions

 Total QAlloc Memory Limit  20000 MB
 Mega-Array Size      4888 MB
 MEM_STATIC part      5000 MB
 A cutoff of  1.0D-08 yielded  38802 shell pairs
 There are    539340 function pairs
 
 -------------------------------------------------------
 OpenMP Integral Computing Module                       
 Release: version 1.0, May 2013, Q-Chem Inc. Pittsburgh 
 -------------------------------------------------------
 Integral Job Info:
 Integral job number is                      11
 Integral operator is                         1
 short-range coefficients                     0
 long-range coefficients              100000000
 Omega coefficients                           0
 if combine SR and LR in K                    0
 Integral screening is                        0
 Integral computing path is                   2
 max size of driver memory is            800000
 size of driver memory is                593474
 size of scratch memory is              2260544
 max col of scratch BK array               1296
 max len of scratch array in speh3          155
 max len of scratch index in speh4           18
 max int batch size is                      520
 min int batch size is                       52
 fixed nKL is                                52
 max L of basis functions is                  2
 order of int derivative is                   0
 number of shells is                        676
 number of basis is                        2360
 number of cartesian basis is              2360
 number of contracted shell pairs         38802
 number of primitive shell pairs         116046
 maxK2 (contraction) of shell pair           36
 max number of K2 of shell pair               1
 max number of CS2 of shell pair           7328
 max number of PS2 of shell pair          34872
 mem total for path MDJ                 1530456
 -------------------------------------------------------
 Smallest overlap matrix eigenvalue = 2.59E-04

 Scale SEOQF with 1.000000e-02/1.000000e-02/1.000000e-02

 Standard Electronic Orientation quadrupole field applied
 Nucleus-field energy     =     0.0000001005 hartrees
 Guess from superposition of atomic densities
 Warning:  Energy on first SCF cycle will be non-variational
 A restricted hybrid HF-DFT SCF calculation will be
 performed using Pulay DIIS extrapolation
 Exchange:     0.2000 Hartree-Fock + 0.0800 Slater + 0.7200 B88
 Correlation:  0.1900 VWN1RPA + 0.8100 LYP
 Using SG-1 standard quadrature grid
 SCF converges when DIIS error is below 1.0E-05
 using 16 threads for integral computing 
 -------------------------------------------------------
 OpenMP BLAS3 based DFT computing Module                
 Release: version 1.0, May 2013, Q-Chem Inc. Pittsburgh 
 -------------------------------------------------------
 ---------------------------------------
  Cycle       Energy         DIIS Error
 ---------------------------------------
    1   -5857.6800083453      1.82E-02
    2   -5803.1659543198      1.28E-03
    3   -5802.4017407217      1.76E-03
    4   -5803.9513363159      6.77E-04
    5   -5804.2148896253      3.09E-04
    6   -5804.2797221064      1.32E-04
    7   -5804.2910002238      4.95E-05
    8   -5804.2921794557      3.01E-05
    9   -5804.2928271557      8.17E-06 Convergence criterion met
 ---------------------------------------
 SCF time:  CPU 7388.98 s  wall 852.33 s
 SCF   energy in the final basis set = -5804.2928271557
 Total energy in the final basis set = -5804.2928271557
 
 --------------------------------------------------------------
 
                    Orbital Energies (a.u.)
 --------------------------------------------------------------
 
 Alpha MOs
 -- Occupied --
-19.193 -19.187 -19.150 -19.138 -10.322 -10.315 -10.251 -10.248
-10.243 -10.241 -10.241 -10.240 -10.236 -10.232 -10.232 -10.231
-10.231 -10.230 -10.230 -10.228 -10.226 -10.226 -10.225 -10.224
-10.224 -10.223 -10.223 -10.223 -10.223 -10.222 -10.222 -10.222
-10.222 -10.221 -10.220 -10.220 -10.220 -10.220 -10.220 -10.219
-10.219 -10.219 -10.219 -10.219 -10.218 -10.218 -10.218 -10.218
-10.218 -10.218 -10.218 -10.217 -10.217 -10.217 -10.217 -10.217
-10.217 -10.217 -10.217 -10.217 -10.216 -10.216 -10.216 -10.216
-10.216 -10.216 -10.215 -10.215 -10.215 -10.215 -10.215 -10.215
-10.215 -10.215 -10.215 -10.214 -10.214 -10.214 -10.214 -10.214
-10.214 -10.214 -10.214 -10.213 -10.213 -10.213 -10.213 -10.213
-10.213 -10.213 -10.213 -10.213 -10.213 -10.213 -10.213 -10.213
-10.212 -10.212 -10.212 -10.212 -10.212 -10.212 -10.212 -10.212
-10.212 -10.212 -10.211 -10.211 -10.211 -10.211 -10.211 -10.210
-10.210 -10.210 -10.210 -10.209 -10.209 -10.209 -10.209 -10.209
-10.208 -10.208 -10.207 -10.207 -10.207 -10.207 -10.207 -10.207
-10.206 -10.206 -10.206 -10.205 -10.205 -10.204 -10.203 -10.203
-10.203 -10.202 -10.202 -10.201 -10.201 -10.200 -10.199 -10.198
-10.198 -10.198 -10.193 -10.189  -1.089  -1.089  -1.020  -1.012
 -0.983  -0.981  -0.965  -0.963  -0.962  -0.961  -0.957  -0.957
 -0.938  -0.931  -0.925  -0.925  -0.924  -0.923  -0.920  -0.919
 -0.918  -0.916  -0.894  -0.893  -0.889  -0.887  -0.884  -0.883
 -0.872  -0.870  -0.854  -0.847  -0.843  -0.840  -0.838  -0.837
 -0.835  -0.830  -0.822  -0.819  -0.810  -0.807  -0.798  -0.795
 -0.794  -0.793  -0.793  -0.790  -0.790  -0.788  -0.785  -0.780
 -0.771  -0.771  -0.769  -0.767  -0.765  -0.764  -0.762  -0.757
 -0.751  -0.746  -0.743  -0.739  -0.732  -0.729  -0.716  -0.714
 -0.713  -0.713  -0.712  -0.711  -0.710  -0.710  -0.709  -0.709
 -0.706  -0.705  -0.704  -0.704  -0.702  -0.698  -0.671  -0.670
 -0.657  -0.657  -0.656  -0.655  -0.645  -0.644  -0.630  -0.630
 -0.627  -0.625  -0.623  -0.622  -0.620  -0.618  -0.617  -0.616
 -0.615  -0.614  -0.613  -0.612  -0.610  -0.610  -0.608  -0.607
 -0.605  -0.603  -0.600  -0.599  -0.564  -0.563  -0.563  -0.562
 -0.558  -0.558  -0.556  -0.554  -0.554  -0.553  -0.552  -0.549
 -0.535  -0.534  -0.531  -0.531  -0.529  -0.527  -0.525  -0.525
 -0.524  -0.522  -0.519  -0.518  -0.514  -0.514  -0.514  -0.510
 -0.510  -0.505  -0.504  -0.503  -0.494  -0.492  -0.487  -0.486
 -0.485  -0.482  -0.480  -0.480  -0.479  -0.478  -0.476  -0.474
 -0.473  -0.471  -0.471  -0.469  -0.468  -0.467  -0.464  -0.464
 -0.464  -0.463  -0.462  -0.460  -0.460  -0.459  -0.459  -0.458
 -0.454  -0.454  -0.451  -0.451  -0.447  -0.445  -0.443  -0.442
 -0.441  -0.440  -0.439  -0.438  -0.437  -0.436  -0.435  -0.432
 -0.432  -0.429  -0.428  -0.426  -0.426  -0.425  -0.424  -0.423
 -0.422  -0.422  -0.421  -0.421  -0.420  -0.419  -0.419  -0.418
 -0.417  -0.417  -0.416  -0.414  -0.414  -0.413  -0.412  -0.411
 -0.411  -0.410  -0.409  -0.407  -0.403  -0.402  -0.400  -0.396
 -0.396  -0.394  -0.392  -0.390  -0.388  -0.385  -0.385  -0.381
 -0.381  -0.375  -0.372  -0.371  -0.370  -0.368  -0.365  -0.364
 -0.364  -0.363  -0.361  -0.361  -0.360  -0.359  -0.358  -0.356
 -0.355  -0.354  -0.354  -0.353  -0.353  -0.352  -0.351  -0.351
 -0.349  -0.348  -0.347  -0.347  -0.346  -0.345  -0.344  -0.344
 -0.343  -0.342  -0.341  -0.340  -0.339  -0.337  -0.334  -0.333
 -0.332  -0.331  -0.330  -0.328  -0.327  -0.325  -0.324  -0.319
 -0.312  -0.311  -0.302  -0.300  -0.285  -0.284  -0.278  -0.274
 -0.271  -0.270  -0.269  -0.267  -0.265  -0.265  -0.264  -0.263
 -0.262  -0.262  -0.260  -0.257  -0.256  -0.255  -0.253  -0.252
 -0.250  -0.244  -0.243  -0.242  -0.220  -0.215  -0.214  -0.211
 -0.209  -0.209  -0.207  -0.204  -0.201  -0.201
 -- Virtual --
 -0.123  -0.121  -0.118  -0.115  -0.110  -0.106  -0.080  -0.079
 -0.074  -0.069  -0.059  -0.057  -0.049  -0.047  -0.027  -0.025
 -0.024  -0.023  -0.020  -0.019  -0.017  -0.016  -0.015  -0.013
 -0.013  -0.012  -0.011  -0.009  -0.007  -0.005  -0.002   0.002
  0.006   0.012   0.034   0.036   0.040   0.041   0.042   0.044
  0.048   0.049   0.054   0.054   0.059   0.061   0.062   0.063
  0.065   0.070   0.072   0.079   0.081   0.084   0.088   0.092
  0.094   0.094   0.095   0.096   0.097   0.098   0.101   0.104
  0.106   0.108   0.109   0.111   0.111   0.114   0.116   0.119
  0.120   0.120   0.122   0.126   0.128   0.130   0.133   0.135
  0.139   0.140   0.144   0.149   0.151   0.152   0.154   0.155
  0.157   0.158   0.159   0.160   0.162   0.164   0.165   0.168
  0.170   0.172   0.172   0.174   0.176   0.179   0.180   0.181
  0.182   0.183   0.185   0.185   0.187   0.189   0.190   0.191
  0.194   0.196   0.197   0.200   0.202   0.203   0.205   0.206
  0.209   0.212   0.212   0.215   0.216   0.217   0.218   0.219
  0.220   0.221   0.222   0.223   0.225   0.225   0.226   0.227
  0.229   0.231   0.231   0.235   0.236   0.237   0.238   0.240
  0.242   0.244   0.245   0.248   0.250   0.252   0.257   0.258
  0.262   0.265   0.269   0.271   0.272   0.274   0.276   0.279
  0.281   0.283   0.288   0.289   0.290   0.291   0.299   0.303
  0.304   0.305   0.307   0.308   0.311   0.314   0.315   0.317
  0.318   0.319   0.320   0.322   0.323   0.327   0.328   0.329
  0.329   0.332   0.336   0.340   0.342   0.345   0.346   0.347
  0.349   0.353   0.356   0.359   0.367   0.374   0.380   0.386
  0.392   0.393   0.395   0.398   0.401   0.403   0.404   0.406
  0.407   0.409   0.411   0.411   0.413   0.418   0.418   0.421
  0.423   0.427   0.429   0.434   0.437   0.438   0.441   0.442
  0.444   0.445   0.451   0.452   0.457   0.459   0.461   0.461
  0.463   0.465   0.468   0.469   0.471   0.474   0.476   0.476
  0.477   0.478   0.480   0.481   0.482   0.483   0.484   0.486
  0.486   0.487   0.487   0.488   0.490   0.491   0.492   0.493
  0.494   0.496   0.497   0.498   0.499   0.500   0.502   0.503
  0.505   0.506   0.507   0.507   0.508   0.510   0.510   0.511
  0.511   0.512   0.513   0.513   0.514   0.515   0.516   0.517
  0.518   0.518   0.519   0.521   0.522   0.522   0.523   0.524
  0.525   0.526   0.527   0.528   0.528   0.529   0.530   0.531
  0.532   0.532   0.533   0.534   0.536   0.537   0.537   0.538
  0.538   0.539   0.541   0.541   0.542   0.543   0.543   0.545
  0.545   0.546   0.546   0.547   0.548   0.549   0.549   0.551
  0.551   0.552   0.553   0.553   0.554   0.554   0.555   0.556
  0.557   0.558   0.558   0.560   0.561   0.562   0.563   0.563
  0.564   0.565   0.566   0.566   0.567   0.568   0.569   0.570
  0.570   0.571   0.572   0.574   0.574   0.576   0.576   0.577
  0.578   0.578   0.579   0.580   0.581   0.582   0.582   0.583
  0.584   0.586   0.587   0.588   0.588   0.589   0.590   0.592
  0.593   0.593   0.594   0.595   0.595   0.596   0.597   0.598
  0.599   0.600   0.601   0.601   0.602   0.603   0.604   0.605
  0.606   0.608   0.609   0.611   0.611   0.613   0.613   0.614
  0.615   0.617   0.618   0.619   0.620   0.622   0.622   0.625
  0.625   0.628   0.628   0.630   0.631   0.632   0.633   0.633
  0.633   0.635   0.636   0.637   0.638   0.639   0.639   0.641
  0.642   0.642   0.644   0.644   0.646   0.648   0.649   0.650
  0.652   0.653   0.654   0.654   0.655   0.656   0.656   0.658
  0.658   0.659   0.659   0.660   0.660   0.662   0.662   0.663
  0.664   0.665   0.666   0.667   0.667   0.668   0.669   0.670
  0.670   0.671   0.672   0.673   0.674   0.675   0.677   0.678
  0.679   0.680   0.682   0.683   0.683   0.684   0.685   0.686
  0.687   0.689   0.689   0.692   0.692   0.694   0.695   0.697
  0.697   0.698   0.699   0.699   0.702   0.703   0.703   0.704
  0.705   0.705   0.706   0.708   0.709   0.711   0.712   0.712
  0.715   0.715   0.717   0.718   0.720   0.720   0.721   0.722
  0.722   0.724   0.726   0.727   0.729   0.729   0.732   0.732
  0.734   0.735   0.736   0.737   0.738   0.739   0.742   0.743
  0.744   0.744   0.746   0.746   0.749   0.751   0.753   0.755
  0.757   0.758   0.759   0.761   0.761   0.763   0.764   0.766
  0.766   0.768   0.770   0.771   0.773   0.775   0.775   0.778
  0.778   0.779   0.780   0.782   0.783   0.784   0.786   0.787
  0.787   0.788   0.789   0.792   0.794   0.795   0.796   0.797
  0.799   0.800   0.800   0.801   0.802   0.803   0.804   0.806
  0.806   0.807   0.807   0.808   0.809   0.810   0.810   0.811
  0.812   0.813   0.813   0.814   0.815   0.815   0.817   0.818
  0.819   0.820   0.821   0.821   0.822   0.822   0.823   0.824
  0.827   0.829   0.829   0.830   0.831   0.832   0.833   0.834
  0.836   0.838   0.841   0.843   0.844   0.844   0.845   0.848
  0.850   0.853   0.855   0.857   0.860   0.864   0.864   0.866
  0.866   0.871   0.873   0.879   0.881   0.885   0.889   0.891
  0.892   0.895   0.896   0.897   0.900   0.905   0.906   0.908
  0.909   0.916   0.919   0.919   0.923   0.924   0.926   0.928
  0.929   0.931   0.932   0.933   0.935   0.937   0.938   0.941
  0.942   0.943   0.945   0.946   0.947   0.949   0.951   0.951
  0.954   0.955   0.959   0.960   0.962   0.964   0.969   0.971
  0.975   0.978   0.983   0.984   0.985   0.987   0.989   0.992
  0.994   0.997   0.998   1.000   1.002   1.003   1.005   1.007
  1.008   1.011   1.012   1.014   1.015   1.017   1.018   1.020
  1.022   1.023   1.024   1.026   1.029   1.031   1.034   1.034
  1.034   1.036   1.039   1.040   1.040   1.044   1.044   1.047
  1.048   1.051   1.051   1.053   1.054   1.055   1.058   1.058
  1.061   1.063   1.064   1.067   1.068   1.070   1.072   1.073
  1.074   1.074   1.076   1.077   1.079   1.082   1.083   1.086
  1.088   1.090   1.091   1.092   1.095   1.096   1.098   1.099
  1.102   1.103   1.104   1.105   1.109   1.110   1.111   1.112
  1.115   1.116   1.117   1.121   1.124   1.124   1.127   1.127
  1.132   1.134   1.134   1.139   1.140   1.141   1.143   1.146
  1.147   1.148   1.150   1.152   1.155   1.158   1.159   1.160
  1.163   1.163   1.165   1.167   1.169   1.169   1.170   1.171
  1.172   1.175   1.176   1.177   1.179   1.181   1.184   1.186
  1.187   1.188   1.190   1.192   1.194   1.195   1.197   1.201
  1.203   1.204   1.206   1.210   1.216   1.216   1.218   1.220
  1.222   1.224   1.225   1.230   1.234   1.238   1.242   1.243
  1.244   1.246   1.248   1.250   1.254   1.256   1.258   1.259
  1.260   1.262   1.264   1.265   1.269   1.272   1.274   1.277
  1.278   1.280   1.282   1.283   1.284   1.285   1.288   1.292
  1.295   1.297   1.301   1.302   1.304   1.306   1.309   1.312
  1.315   1.316   1.317   1.320   1.322   1.324   1.326   1.328
  1.330   1.333   1.334   1.337   1.340   1.343   1.343   1.348
  1.350   1.351   1.352   1.354   1.357   1.359   1.360   1.362
  1.365   1.367   1.372   1.373   1.377   1.378   1.382   1.383
  1.385   1.387   1.391   1.396   1.400   1.400   1.402   1.406
  1.406   1.413   1.415   1.418   1.422   1.423   1.425   1.428
  1.432   1.433   1.435   1.439   1.439   1.444   1.449   1.451
  1.454   1.456   1.460   1.461   1.462   1.464   1.466   1.468
  1.469   1.470   1.471   1.475   1.475   1.479   1.480   1.484
  1.486   1.487   1.489   1.492   1.495   1.496   1.499   1.502
  1.503   1.504   1.508   1.510   1.512   1.514   1.518   1.520
  1.524   1.525   1.529   1.532   1.533   1.536   1.538   1.540
  1.542   1.546   1.548   1.551   1.556   1.558   1.559   1.560
  1.562   1.563   1.566   1.567   1.570   1.572   1.574   1.577
  1.579   1.582   1.583   1.585   1.588   1.589   1.591   1.594
  1.596   1.597   1.599   1.603   1.610   1.614   1.617   1.620
  1.622   1.628   1.631   1.634   1.636   1.638   1.640   1.642
  1.643   1.651   1.655   1.658   1.662   1.669   1.673   1.677
  1.680   1.683   1.684   1.688   1.688   1.690   1.695   1.696
  1.699   1.703   1.706   1.707   1.709   1.711   1.714   1.715
  1.716   1.717   1.719   1.720   1.724   1.724   1.729   1.729
  1.730   1.732   1.736   1.736   1.739   1.741   1.742   1.743
  1.744   1.746   1.749   1.751   1.752   1.755   1.756   1.757
  1.758   1.759   1.761   1.762   1.764   1.766   1.767   1.768
  1.769   1.770   1.772   1.774   1.774   1.775   1.777   1.777
  1.778   1.779   1.781   1.782   1.783   1.784   1.786   1.787
  1.788   1.789   1.790   1.793   1.794   1.794   1.794   1.797
  1.797   1.799   1.800   1.801   1.803   1.805   1.807   1.808
  1.808   1.810   1.813   1.814   1.817   1.818   1.819   1.824
  1.827   1.828   1.829   1.834   1.835   1.838   1.839   1.840
  1.841   1.845   1.845   1.847   1.848   1.852   1.854   1.856
  1.856   1.860   1.861   1.862   1.864   1.865   1.866   1.867
  1.871   1.872   1.873   1.876   1.877   1.881   1.882   1.884
  1.886   1.888   1.892   1.892   1.895   1.896   1.900   1.902
  1.903   1.908   1.910   1.912   1.915   1.916   1.918   1.920
  1.920   1.922   1.925   1.928   1.929   1.930   1.931   1.937
  1.939   1.942   1.942   1.944   1.946   1.948   1.948   1.949
  1.950   1.954   1.956   1.958   1.959   1.962   1.965   1.969
  1.969   1.973   1.974   1.975   1.976   1.978   1.980   1.983
  1.985   1.986   1.988   1.989   1.990   1.992   1.993   1.994
  1.995   1.996   1.998   1.999   1.999   2.001   2.002   2.003
  2.004   2.005   2.006   2.007   2.009   2.010   2.011   2.012
  2.013   2.015   2.016   2.017   2.019   2.020   2.021   2.022
  2.023   2.025   2.025   2.026   2.029   2.031   2.031   2.032
  2.033   2.034   2.036   2.036   2.037   2.038   2.038   2.041
  2.043   2.043   2.045   2.047   2.048   2.049   2.050   2.053
  2.053   2.053   2.054   2.057   2.057   2.058   2.061   2.062
  2.065   2.066   2.068   2.068   2.070   2.071   2.072   2.074
  2.074   2.076   2.077   2.080   2.081   2.084   2.085   2.085
  2.090   2.093   2.094   2.094   2.095   2.098   2.100   2.100
  2.102   2.104   2.105   2.107   2.110   2.112   2.115   2.116
  2.119   2.123   2.124   2.130   2.132   2.140   2.142   2.144
  2.145   2.147   2.150   2.156   2.158   2.160   2.161   2.168
  2.171   2.176   2.181   2.184   2.185   2.187   2.193   2.199
  2.200   2.208   2.211   2.214   2.217   2.221   2.221   2.224
  2.227   2.231   2.232   2.234   2.235   2.238   2.241   2.243
  2.245   2.247   2.248   2.250   2.251   2.260   2.261   2.262
  2.265   2.266   2.267   2.270   2.270   2.273   2.277   2.279
  2.280   2.282   2.285   2.287   2.288   2.292   2.296   2.297
  2.298   2.300   2.302   2.306   2.310   2.313   2.315   2.315
  2.318   2.320   2.324   2.324   2.326   2.328   2.331   2.334
  2.337   2.337   2.339   2.341   2.346   2.349   2.350   2.353
  2.353   2.355   2.357   2.358   2.359   2.361   2.362   2.366
  2.366   2.370   2.373   2.375   2.376   2.378   2.379   2.379
  2.382   2.384   2.385   2.386   2.388   2.389   2.390   2.392
  2.393   2.395   2.396   2.398   2.402   2.403   2.405   2.407
  2.409   2.411   2.413   2.414   2.415   2.419   2.423   2.425
  2.427   2.431   2.431   2.436   2.438   2.439   2.439   2.442
  2.446   2.447   2.449   2.454   2.455   2.459   2.459   2.460
  2.464   2.466   2.468   2.468   2.470   2.471   2.472   2.473
  2.474   2.475   2.477   2.482   2.484   2.486   2.488   2.489
  2.490   2.493   2.494   2.498   2.498   2.500   2.502   2.503
  2.504   2.510   2.512   2.513   2.514   2.516   2.521   2.522
  2.525   2.526   2.527   2.529   2.532   2.533   2.535   2.538
  2.541   2.543   2.545   2.549   2.551   2.554   2.558   2.560
  2.564   2.570   2.572   2.572   2.573   2.578   2.579   2.580
  2.583   2.584   2.586   2.589   2.591   2.593   2.596   2.597
  2.602   2.603   2.605   2.606   2.608   2.611   2.613   2.615
  2.617   2.619   2.620   2.622   2.623   2.624   2.628   2.630
  2.631   2.632   2.635   2.636   2.637   2.639   2.641   2.642
  2.644   2.645   2.648   2.651   2.654   2.655   2.657   2.658
  2.660   2.661   2.662   2.664   2.666   2.669   2.671   2.672
  2.673   2.676   2.677   2.677   2.680   2.683   2.684   2.688
  2.688   2.691   2.693   2.694   2.696   2.698   2.700   2.704
  2.706   2.707   2.710   2.711   2.712   2.717   2.718   2.721
  2.723   2.727   2.728   2.732   2.734   2.736   2.737   2.739
  2.741   2.743   2.747   2.748   2.750   2.752   2.756   2.758
  2.759   2.761   2.764   2.765   2.767   2.768   2.772   2.773
  2.775   2.776   2.780   2.780   2.782   2.785   2.788   2.790
  2.793   2.795   2.798   2.801   2.806   2.806   2.810   2.813
  2.816   2.817   2.820   2.825   2.828   2.832   2.834   2.836
  2.840   2.841   2.843   2.845   2.846   2.850   2.851   2.853
  2.855   2.858   2.859   2.861   2.864   2.867   2.867   2.871
  2.872   2.874   2.875   2.877   2.879   2.880   2.882   2.882
  2.883   2.888   2.890   2.892   2.896   2.897   2.898   2.901
  2.902   2.904   2.906   2.906   2.910   2.912   2.912   2.915
  2.916   2.917   2.919   2.924   2.925   2.926   2.930   2.932
  2.933   2.934   2.936   2.938   2.943   2.946   2.947   2.950
  2.954   2.957   2.961   2.964   2.967   2.968   2.971   2.973
  2.974   2.979   2.982   2.984   2.987   2.994   2.996   2.996
  3.002   3.004   3.006   3.009   3.012   3.015   3.017   3.019
  3.022   3.022   3.027   3.030   3.030   3.032   3.034   3.036
  3.040   3.041   3.043   3.047   3.049   3.056   3.058   3.061
  3.062   3.067   3.069   3.073   3.076   3.076   3.088   3.091
  3.102   3.106   3.112   3.120   3.121   3.129   3.133   3.135
  3.139   3.152   3.154   3.158   3.165   3.167   3.171   3.173
  3.176   3.195   3.198   3.202   3.208   3.220   3.232   3.240
  3.241   3.246   3.251   3.256   3.259   3.260   3.266   3.288
  3.294   3.300   3.301   3.310   3.312   3.318   3.321   3.326
  3.329   3.330   3.339   3.340   3.347   3.365   3.375   3.380
  3.391   3.391   3.397   3.409   3.413   3.414   3.421   3.430
  3.436   3.446   3.453   3.461   3.464   3.476   3.480   3.484
  3.495   3.496   3.500   3.502   3.511   3.525   3.530   3.533
  3.543   3.549   3.552   3.556   3.578   3.581   3.592   3.600
  3.607   3.614   3.676   3.684   3.814   3.843   3.973   4.006
  4.062   4.072   4.076   4.080   4.089   4.090   4.095   4.096
  4.100   4.103   4.108   4.109   4.110   4.117   4.121   4.122
  4.126   4.128   4.135   4.140   4.143   4.148   4.151   4.152
  4.153   4.158   4.159   4.166   4.171   4.177   4.178   4.181
  4.190   4.198   4.204   4.211   4.214   4.227   4.238   4.240
  4.245   4.247   4.250   4.254   4.256   4.258   4.267   4.270
  4.272   4.277   4.287   4.291   4.294   4.300   4.303   4.306
  4.312   4.315   4.325   4.366   4.384   4.389   4.392   4.393
  4.396   4.398   4.400   4.406   4.410   4.412   4.413   4.416
  4.420   4.426   4.427   4.434   4.451   4.455   4.460   4.472
  4.485   4.497   4.499   4.507   4.532   4.538   4.547   4.549
  4.556   4.564   4.610   4.616   4.621   4.624   4.628   4.644
  4.646   4.663   4.686   4.687   4.689   4.694   4.699   4.703
  4.704   4.708   4.712   4.736   4.767   4.773   4.788   4.816
  4.827   4.854   4.859   4.863   4.865   4.870   4.877   4.884
  4.896   4.907   4.933   4.949   4.954   4.959   4.968   4.969
  4.980   4.983   4.991   4.998   5.139   5.150   5.159   5.164
  5.182   5.190   5.209   5.220   5.281   5.298   5.319   5.336
  5.342   5.380
 --------------------------------------------------------------
 
          Ground-State Mulliken Net Atomic Charges

     Atom                 Charge (a.u.)
  ----------------------------------------
      1 O                    -0.481424
      2 C                    -0.091865
      3 H                     0.131203
      4 H                     0.136071
      5 H                     0.135757
      6 O                    -0.468789
      7 C                     0.601287
      8 C                    -0.251073
      9 H                     0.123904
     10 H                     0.130414
     11 C                    -0.200355
     12 H                     0.135572
     13 H                     0.105386
     14 C                    -0.197770
     15 H                     0.107460
     16 H                     0.113403
     17 C                     0.031145
     18 C                     0.062164
     19 C                    -0.109029
     20 H                     0.099054
     21 C                    -0.089193
     22 H                     0.086408
     23 C                    -0.070684
     24 H                     0.090068
     25 C                    -0.096071
     26 H                     0.097536
     27 C                    -0.101413
     28 H                     0.099397
     29 C                     0.014229
     30 C                     0.022285
     31 C                     0.035427
     32 C                    -0.002143
     33 C                     0.023007
     34 C                    -0.006542
     35 C                     0.019593
     36 C                     0.004806
     37 C                    -0.016100
     38 C                     0.007085
     39 C                    -0.105146
     40 C                    -0.001137
     41 C                    -0.035869
     42 C                    -0.043869
     43 C                    -0.009773
     44 C                    -0.015432
     45 C                    -0.060514
     46 C                     0.030905
     47 C                    -0.005287
     48 C                    -0.014662
     49 C                    -0.004782
     50 C                    -0.021130
     51 C                    -0.002782
     52 C                     0.020587
     53 C                     0.060056
     54 C                    -0.010713
     55 C                    -0.009456
     56 C                    -0.015680
     57 C                    -0.014338
     58 C                    -0.053182
     59 C                     0.020345
     60 C                     0.053070
     61 C                     0.003338
     62 C                     0.023426
     63 C                    -0.006396
     64 C                     0.028841
     65 C                    -0.010043
     66 C                     0.023605
     67 C                    -0.001641
     68 C                    -0.020347
     69 C                     0.046419
     70 C                     0.017045
     71 C                     0.015123
     72 C                    -0.018124
     73 C                    -0.013661
     74 C                     0.019042
     75 C                    -0.021680
     76 C                    -0.030694
     77 C                     0.006287
     78 C                    -0.019303
     79 C                    -0.006538
     80 C                    -0.024059
     81 C                    -0.000527
     82 C                    -0.000726
     83 C                    -0.005433
     84 C                     0.000143
     85 C                    -0.009996
     86 C                    -0.016596
     87 C                     0.020742
     88 C                    -0.001039
     89 O                    -0.498059
     90 C                    -0.093312
     91 H                     0.135739
     92 H                     0.126847
     93 H                     0.127797
     94 O                    -0.424215
     95 C                     0.593443
     96 C                    -0.258587
     97 H                     0.126995
     98 H                     0.132940
     99 C                    -0.170558
    100 H                     0.101171
    101 H                     0.126104
    102 C                    -0.200840
    103 H                     0.104719
    104 H                     0.111563
    105 C                     0.024840
    106 C                     0.077987
    107 C                    -0.113436
    108 H                     0.093191
    109 C                    -0.087495
    110 H                     0.096882
    111 C                    -0.087234
    112 H                     0.093368
    113 C                    -0.090025
    114 H                     0.095224
    115 C                    -0.107168
    116 H                     0.094561
    117 C                    -0.019739
    118 C                    -0.015144
    119 C                     0.032940
    120 C                     0.030055
    121 C                     0.023256
    122 C                    -0.010465
    123 C                    -0.007017
    124 C                     0.012479
    125 C                    -0.008337
    126 C                     0.047146
    127 C                    -0.083674
    128 C                     0.013583
    129 C                     0.029607
    130 C                     0.001849
    131 C                    -0.006322
    132 C                     0.007501
    133 C                    -0.119095
    134 C                     0.054628
    135 C                    -0.007905
    136 C                     0.009920
    137 C                    -0.005589
    138 C                     0.010551
    139 C                    -0.023449
    140 C                     0.014654
    141 C                     0.044382
    142 C                     0.006026
    143 C                    -0.035668
    144 C                    -0.029408
    145 C                    -0.015240
    146 C                    -0.011674
    147 C                    -0.008066
    148 C                     0.008738
    149 C                     0.003111
    150 C                    -0.032741
    151 C                     0.008846
    152 C                    -0.007476
    153 C                    -0.011224
    154 C                     0.011010
    155 C                    -0.013291
    156 C                    -0.004824
    157 C                     0.034105
    158 C                     0.039887
    159 C                    -0.016748
    160 C                    -0.010425
    161 C                    -0.032560
    162 C                    -0.014749
    163 C                    -0.014748
    164 C                     0.037562
    165 C                    -0.016524
    166 C                     0.014537
    167 C                    -0.017214
    168 C                     0.028322
    169 C                     0.009771
    170 C                    -0.004698
    171 C                     0.000186
    172 C                     0.015324
    173 C                    -0.006349
    174 C                    -0.014533
    175 C                    -0.015836
    176 C                    -0.030320
  ----------------------------------------
  Sum of atomic charges =     0.000000

 -----------------------------------------------------------------
                    Cartesian Multipole Moments
 -----------------------------------------------------------------
    Charge (ESU x 10^10)
                 0.0000
    Dipole Moment (Debye)
         X      -0.3369      Y       4.8681      Z      -0.1806
       Tot       4.8830
    Quadrupole Moments (Debye-Ang)
        XX    -816.1364     XY       4.1125     YY    -802.2440
        XZ      -2.9611     YZ      -7.4054     ZZ    -787.0032
    Octopole Moments (Debye-Ang^2)
       XXX    -323.5257    XXY     139.9391    XYY      88.4802
       YYY     288.5588    XXZ      67.8183    XYZ      24.5931
       YYZ     -89.0715    XZZ     -99.2680    YZZ     232.3117
       ZZZ      69.5204
    Hexadecapole Moments (Debye-Ang^3)
      XXXX -133934.1489   XXXY   -1198.3958   XXYY  -30422.1788
      XYYY     333.8548   YYYY  -42296.4976   XXXZ    -871.7122
      XXYZ      99.0042   XYYZ     250.0512   YYYZ   -1020.9505
      XXZZ  -26227.7869   XYZZ    -464.6502   YYZZ  -10270.8034
      XZZZ     -95.0562   YZZZ    -109.0665   ZZZZ  -23360.7249
 -----------------------------------------------------------------
Archival summary:
1\1\mn366\SP\ProcedureUnspecified\6-31G**\428\afmv_a\SatOct616:30:342018SatOct616:30:342018\0\\#,ProcedureUnspecified,6-31G**,\\0,1\O\C,1,1.21162\O,2,1.36885,1,125.712\C,3,1.48153,2,119.522,1,-19.4049,0\H,4,1.09693,3,107.918,2,66.6298,0\H,4,1.09706,3,105.879,2,-50.3959,0\H,4,1.09716,3,110.473,2,-172.885,0\C,2,1.50296,1,122.873,3,166.292,0\H,8,1.09677,2,107.772,1,-174.316,0\H,8,1.09715,2,105.291,1,-52.035,0\C,8,1.52712,2,107.348,1,67.4639,0\H,11,1.09689,8,108.621,2,-155.11,0\H,11,1.09734,8,111.195,2,-33.1899,0\C,11,1.53647,8,108.37,2,85.8928,0\H,14,1.09664,11,109.448,8,-50.1863,0\H,14,1.09751,11,104.978,8,65.6758,0\C,14,1.50587,11,115.21,8,-176.739,0\C,17,1.49256,14,112.685,11,66.2231,0\C,18,1.48469,17,60.8468,14,107.805,0\C,19,1.45964,18,117.139,17,114.647,0\C,20,1.42812,19,108.164,18,143.307,0\C,21,1.37271,20,120.517,19,-150.323,0\C,22,1.39544,21,118.932,20,135.363,0\C,23,1.36193,22,124.695,21,5.43749,0\C,24,1.39141,23,121.95,22,-140.796,0\C,25,1.38378,24,103.524,23,140.052,0\C,26,1.38981,25,113.661,24,1.33985,0\C,27,1.35819,26,104.188,25,-1.4279,0\C,28,1.39509,27,118.72,26,-143.36,0\C,25,1.39511,24,119.793,23,-6.5421,0\C,30,1.39441,25,115.467,24,142.797,0\C,31,1.38509,30,103.6,25,-140.114,0\C,23,1.406,22,108.819,21,-143.673,0\C,33,1.3967,23,107.02,22,6.95301,0\C,34,1.3734,33,108.543,23,-7.74378,0\C,34,1.38287,33,119.394,23,141.162,0\C,36,1.40071,34,117.208,33,-2.48152,0\C,37,1.3708,36,108.154,34,-147.649,0\C,37,1.37303,36,123.04,34,1.18792,0\C,39,1.34018,37,119.715,36,4.8922,0\C,36,1.41084,34,120.431,33,-143.366,0\C,41,1.40518,36,102.715,34,141.896,0\C,42,1.38602,41,117.085,36,-145.407,0\C,43,1.40601,42,119.735,41,4.62478,0\C,44,1.37396,43,122.632,42,-2.9335,0\C,45,1.38647,44,119.078,43,2.72656,0\C,44,1.40301,43,104.426,42,137.487,0\C,47,1.37779,44,110.328,43,4.61707,0\C,48,1.3907,47,109.123,44,-5.08314,0\C,47,1.40918,44,121.301,43,-146.424,0\C,50,1.40153,47,120.573,44,8.57807,0\C,50,1.41131,47,116.282,44,138.462,0\C,52,1.40685,50,121.454,47,8.55799,0\C,29,1.41405,28,120.234,27,3.16207,0\C,54,1.41066,29,121.309,28,-2.28475,0\C,55,1.3992,54,118.459,29,0.278801,0\C,56,1.42128,55,109.766,54,141.262,0\C,57,1.38839,56,107.559,55,-3.7934,0\C,58,1.42088,57,108.233,56,3.50784,0\C,59,1.40949,58,119.68,57,-144.522,0\C,58,1.42269,57,122.814,56,-141.181,0\C,61,1.40951,58,121.406,57,-0.449782,0\C,62,1.3886,61,106.794,58,143.532,0\C,63,1.3948,62,112.192,61,6.38403,0\C,62,1.41047,61,115.917,58,2.54511,0\C,65,1.41868,62,116.357,61,137.342,0\C,66,1.39985,65,106.425,62,-147.324,0\C,66,1.4022,65,122.167,62,0.549388,0\C,68,1.40881,66,118.857,65,-139.476,0\C,69,1.41628,68,108.624,66,144.887,0\C,70,1.40972,69,107.042,68,-2.36358,0\C,65,1.4188,62,122.405,61,0.784359,0\C,72,1.39665,65,109.396,62,145.286,0\C,71,1.4214,70,109.38,69,1.32655,0\C,46,1.43134,45,111.841,44,138.819,0\C,20,1.43406,19,122.625,18,-7.17448,0\C,51,1.44131,50,118.568,47,-7.29239,0\C,17,1.55202,14,114.404,11,-78.5967,0\C,78,1.41591,17,120.797,14,-88.6425,0\H,79,1.08616,78,124.263,17,-9.47356,0\C,79,1.41373,78,117.601,17,-176.486,0\H,81,1.08585,79,124.281,78,-176.755,0\C,81,1.37973,79,123.048,78,3.43201,0\H,83,1.08651,81,115.361,79,179.302,0\C,83,1.40946,81,119.761,79,-3.38676,0\H,85,1.08639,83,119.997,81,-178.447,0\C,85,1.3988,83,119.21,81,-2.21577,0\H,87,1.08632,85,121.763,83,173.461,0\H,10,2.56025,8,163.652,2,101.09,0\C,89,1.09641,10,147.207,8,-179.597,0\H,90,1.09697,89,100.794,10,39.4427,0\C,90,1.51786,89,106.941,10,-76.2034,0\H,92,1.09648,90,103.341,89,75.5625,0\H,92,1.097,90,108.119,89,-172.272,0\C,92,1.50981,90,112.825,89,-38.7475,0\H,95,1.09648,92,107.263,90,55.0289,0\H,95,1.09732,92,106.618,90,-57.5625,0\C,95,1.53563,92,119.192,90,-179.992,0\O,98,1.18028,95,121.971,92,1.80935,0\O,98,1.41501,95,107.745,92,-173.999,0\C,100,1.47171,98,121.138,95,168.1,0\H,101,1.09692,100,109.89,98,129.068,0\H,101,1.09718,100,109.263,98,-107.416,0\H,101,1.09761,100,110.416,98,14.6062,0\C,90,1.61052,89,111.451,10,161.541,0\C,105,1.47758,90,113.959,89,-175.924,0\C,106,1.40649,105,124.085,90,-101.147,0\H,107,1.08648,106,113.351,105,-20.7712,0\C,107,1.41178,106,122.47,105,167.604,0\H,109,1.08612,107,119.892,106,179.649,0\C,109,1.41351,107,118.01,106,13.6202,0\H,111,1.08569,109,118.88,107,168.918,0\C,111,1.41137,109,120.719,107,-11.8337,0\H,113,1.08675,111,119.772,109,-160.802,0\C,113,1.42368,111,120.527,109,4.05002,0\H,115,1.08602,113,119.467,111,-171.108,0\C,105,1.50803,90,117.966,89,-41.3738,0\C,117,1.48437,105,124.824,90,-0.852614,0\C,118,1.36378,117,119.16,105,72.7164,0\C,118,1.38169,117,109.767,105,-147.987,0\C,120,1.35967,118,123.207,117,-148.792,0\C,121,1.37079,120,118.31,118,9.4411,0\C,122,1.35532,121,120.733,120,-6.81603,0\C,122,1.37362,121,109.651,120,147.299,0\C,124,1.40294,122,118.254,121,-147.195,0\C,124,1.40586,122,106.488,121,-8.50428,0\C,126,1.34528,124,121.776,122,-139.865,0\C,126,1.37882,124,109.253,122,8.63099,0\C,127,1.40615,126,120.423,124,5.39935,0\C,129,1.40637,127,112.474,126,141.144,0\C,130,1.40498,129,103.899,127,-2.32448,0\C,131,1.38874,130,110.52,129,4.08312,0\C,132,1.39934,131,118.401,130,-141.948,0\C,133,1.40103,132,119.828,131,-3.92344,0\C,134,1.36198,133,106.035,132,149.001,0\C,125,1.40969,124,118.661,122,132.769,0\C,133,1.41048,132,120.954,131,139.787,0\C,137,1.3869,133,105.804,132,-145.029,0\C,120,1.4112,118,109.183,117,-1.90364,0\C,139,1.40513,120,110.975,118,-2.33861,0\C,140,1.40885,139,121.113,120,-139.559,0\C,141,1.36398,140,117.885,139,-9.7259,0\C,123,1.41341,122,119.766,121,142.034,0\C,143,1.41581,123,109.984,122,-140.838,0\C,144,1.36777,143,120.553,123,144.272,0\C,144,1.38799,143,104.499,123,-0.0953532,0\C,146,1.40549,144,119.893,143,148.457,0\C,145,1.41211,144,118.481,143,-5.61234,0\C,148,1.38593,145,110.144,144,-140.515,0\C,149,1.4134,148,118.184,145,147.62,0\C,150,1.37894,149,121.929,148,-1.52419,0\C,151,1.41387,150,119.794,149,1.62324,0\C,149,1.41483,148,107.854,145,0.00135907,0\C,153,1.41808,149,115.206,148,139.283,0\C,154,1.38226,153,118.096,149,-133.7,0\C,155,1.38695,154,108.441,153,147.674,0\C,156,1.39395,155,109.543,154,-1.67672,0\C,154,1.41821,153,122.661,149,7.98805,0\C,141,1.41937,140,121.246,139,134.046,0\C,159,1.3981,141,117.763,140,-3.56414,0\C,159,1.41397,141,109.267,140,-145.699,0\C,160,1.42123,159,121.274,141,-138.79,0\C,162,1.41626,160,110.602,159,146.586,0\C,163,1.36199,162,119.446,160,-142.457,0\C,151,1.42154,150,107.885,149,-140.943,0\C,165,1.40131,151,107.846,150,0.678774,0\C,166,1.37337,165,108.591,151,-2.88237,0\C,166,1.39412,165,119.122,151,143.322,0\C,168,1.39614,166,120.861,165,-141.115,0\C,169,1.39146,168,105.851,166,138.997,0\C,170,1.40244,169,111.726,168,7.47536,0\C,171,1.37199,170,105.557,169,-10.0047,0\C,148,1.42244,145,121.067,144,11.2388,0\C,173,1.38858,148,120.761,145,-9.48162,0\C,161,1.43167,159,103.29,141,1.01839,0\C,147,1.48299,146,121.558,144,-147.184,0\\\@

 Total job time:  868.45s(wall), 7416.45s(cpu) 
 Sat Oct  6 16:30:34 2018

        *************************************************************
        *                                                           *
        *  Thank you very much for using Q-Chem.  Have a nice day.  *
        *                                                           *
        *************************************************************


