
Running Job 1 of 1 ./9/31.qcin
qchem ./9/31.qcin_144614.0 /tmpu/cab_g/afmv_a/scratch_qchem/qchem144614/ 1
/tmpu/appuserlic/qchem4.4/serial-multicore/exe/qcprog.exe_s ./9/31.qcin_144614.0 /tmpu/cab_g/afmv_a/scratch_qchem/qchem144614/
Check license passed

                  Welcome to Q-Chem
     A Quantum Leap Into The Future Of Chemistry


 Q-Chem 4.4, Q-Chem, Inc., Pleasanton, CA (2016)

 Y. Shao,  Z. Gan,  E. Epifanovsky,  A. T. B. Gilbert,  M. Wormit,  
 J. Kussmann,  A. W. Lange,  A. Behn,  J. Deng,  X. Feng,  D. Ghosh,  
 M. Goldey,  P. R. Horn,  L. D. Jacobson,  I. Kaliman,  F. Rob,  
 R. Z. Khaliullin,  T. Kus,  A. Landau,  J. Liu,  E. I. Proynov,  Y. M. Rhee,  
 R. M. Richard,  M. A. Rohrdanz,  R. P. Steele,  E. J. Sundstrom,  
 H. L. Woodcock III,  P. M. Zimmerman,  D. Zuev,  B. Albrecht,  E. Alguire,  
 B. Austin,  S. A. Baeppler,  G. J. O. Beran,  Y. A. Bernard,  E. Berquist,  
 K. Brandhorst,  K. B. Bravaya,  S. T. Brown,  D. Casanova,  C.-M. Chang,  
 Y. Chen,  S. H. Chien,  K. D. Closser,  M. P. Coons,  D. L. Crittenden,  
 S. Dasgupta,  M. Diedenhofen,  R. A. DiStasio Jr.,  H. Do,  A. D. Dutoi,  
 R. G. Edgar,  P.-T. Fang,  S. Fatehi,  Q. Feng,  L. Fusti-Molnar,  
 A. Ghysels,  A. Golubeva-Zadorozhnaya,  J. Gomes,  A. Gunina,  
 M. W. D. Hanson-Heine,  P. H. P. Harbach,  A. W. Hauser,  J. E. Herr,  
 E. G. Hohenstein,  Z. C. Holden,  K. Hui,  T.-C. Jagau,  H. Ji,  B. Kaduk,  
 K. Khistyaev,  Jaehoon Kim,  Jihan Kim,  R. A. King,  P. Klunzinger,  
 K. Koh,  D. Kosenkov,  T. Kowalczyk,  C. M. Krauter,  A. Kunitsa,  
 K. U. Lao,  A. Laurent,  K. V. Lawler,  J. Lee,  D. Lefrancois,  S. Lehtola,  
 S. V. Levchenko,  C. Y. Lin,  Y.-S. Lin,  F. Liu,  E. Livshits,  
 R. C. Lochan,  A. Luenser,  P. Manohar,  S. F. Manzer,  S.-P. Mao,  Y. Mao,  
 N. Mardirossian,  A. V. Marenich,  L. A. Martinez-Martinez,  S. A. Maurer,  
 N. J. Mayhall,  J.-M. Mewes,  A. F. Morrison,  K. Nanda,  T. S. Nguyen-Beck,  
 C. M. Oana,  R. Olivares-Amaya,  D. P. O'Neill,  J. A. Parkhill,  
 T. M. Perrine,  R. Peverati,  P. A. Pieniazek,  F. Plasser,  A. Prociuk,  
 D. R. Rehn,  E. Rosta,  N. J. Russ,  N. Sergueev,  S. M. Sharada,  
 S. Sharma,  D. W. Small,  A. Sodt,  T. Stauch,  T. Stein,  D. Stuck,  
 Y.-C. Su,  A. J. W. Thom,  T. Tsuchimochi,  L. Vogt,  O. Vydrov,  T. Wang,  
 M. A. Watson,  J. Wenzel,  A. White,  C. F. Williams,  V. Vanovschi,  
 K. Yao,  S. Yeganeh,  S. R. Yost,  Z.-Q. You,  I. Y. Zhang,  X. Zhang,  
 Y. Zhao,  B. R. Brooks,  G. K. L. Chan,  D. M. Chipman,  C. J. Cramer,  
 W. A. Goddard III,  M. S. Gordon,  W. J. Hehre,  A. Klamt,  
 H. F. Schaefer III,  M. W. Schmidt,  C. D. Sherrill,  D. G. Truhlar,  
 A. Warshel,  X. Xu,  A. Aspuru-Guzik,  R. Baer,  A. T. Bell,  N. A. Besley,  
 J.-D. Chai,  A. Dreuw,  B. D. Dunietz,  T. R. Furlani,  S. R. Gwaltney,  
 C.-P. Hsu,  Y. Jung,  J. Kong,  D. S. Lambrecht,  W. Liang,  C. Ochsenfeld,  
 V. A. Rassolov,  L. V. Slipchenko,  J. E. Subotnik,  T. Van Voorhis,  
 J. M. Herbert,  A. I. Krylov,  P. M. W. Gill,  M. Head-Gordon

 Contributors to earlier versions of Q-Chem not listed above: 
 R. D. Adamson,  J. Baker,  E. F. C. Byrd,  A. K. Chakraborty,  C.-L. Cheng,  
 H. Dachsel,  R. J. Doerksen,  G. Hawkins,  A. Heyden,  S. Hirata,  
 G. Kedziora,  F. J. Keil,  C. Kelley,  P. P. Korambath,  W. Kurlancheek,  
 A. M. Lee,  M. S. Lee,  D. Liotard,  I. Lotan,  P. E. Maslen,  N. Nair,  
 D. Neuhauser,  R. Olson,  B. Peters,  J. Ritchie,  N. E. Schultz,  
 N. Shenvi,  A. C. Simmonett,  K. S. Thanthiriwatte,  Q. Wu,  W. Zhang

 Please cite Q-Chem as follows:
 Y. Shao et al., Mol. Phys. 113, 184-215 (2015)
 DOI: 10.1080/00268976.2014.952696

 Q-Chem 4.4.2 for Intel X86 Linux

 Parts of Q-Chem use Armadillo 5.200.1 (Boston Tea Smuggler).
 http://arma.sourceforge.net/

 Q-Chem begins on Sat Oct  6 17:28:52 2018  

Host: 
0

     Scratch files written to /tmpu/cab_g/afmv_a/scratch_qchem/qchem144614//
 Dec716 11556_ 22328  22283 4050   
Processing $rem in /tmpu/appuserlic/qchem4.4/serial-multicore/config/preferences.
 MEM_TOTAL  2000 
FILE_GEOM_ORG=        593

Checking the input file for inconsistencies... 	...done.

--------------------------------------------------------------
User input:
--------------------------------------------------------------
$comment
SP
$end

$rem
MEM_STATIC 5000
MEM_TOTAL 20000
JOBTYPE SP
EXCHANGE B3LYP
BASIS 6-31g(d,p)
$end

$molecule
0 1
O          11.711000      9.004000      7.119000
C          11.495000      9.131000      8.543000
H          12.450000      9.446000      8.981000
H          11.216000      8.179000      9.011000
H          10.645000      9.810000      8.685000
O           9.635000      9.801000      6.632000
C          10.682000      9.287000      6.291000
C          10.988000      8.923000      4.801000
H          11.962000      8.424000      4.727000
H          11.136000      9.907000      4.338000
C           9.709000      8.211000      4.117000
H           9.759000      7.195000      4.525000
H           8.826000      8.758000      4.471000
C           9.908000      8.130000      2.614000
H          10.071000      9.166000      2.291000
H          10.878000      7.687000      2.359000
C           8.688000      7.548000      1.847000
C           7.455000      8.453000      1.828000
C           7.372000      9.466000      0.823000
H           8.079000      9.537000      0.001000
C           6.221000     10.286000      0.818000
H           6.169000     10.990000     -0.008000
C           5.119000     10.110000      1.701000
H           4.241000     10.740000      1.593000
C           5.205000      9.095000      2.641000
H           4.393000      8.939000      3.344000
C           6.376000      8.350000      2.715000
H           6.464000      7.698000      3.579000
C           5.492000      3.158000      1.139000
C           5.180000      4.370000     -0.956000
C           7.649000      1.405000     -3.418000
C          10.334000      2.364000      2.346000
C          10.664000      3.301000     -3.263000
C           5.394000      4.364000      0.472000
C          11.805000      1.945000     -0.085000
C           5.981000      1.013000     -1.686000
C           8.570000      6.395000     -1.736000
C          11.064000      3.409000      1.791000
C           8.913000      6.649000      0.616000
C           9.938000      6.218000     -1.433000
C          11.638000      4.421000     -0.118000
C          11.674000      1.956000     -1.472000
C           6.532000      6.104000     -0.384000
C           9.868000      0.998000     -2.854000
C           8.455000      6.078000      1.952000
C           9.368000      5.011000      2.444000
C           9.800000      2.197000     -3.557000
C           8.370000      0.020000      0.683000
C           8.136000     -0.103000     -1.535000
C           6.873000      0.129000     -0.988000
C           5.281000      1.937000     -0.896000
C           8.564000      3.985000      2.906000
C           7.870000      6.564000     -0.567000
C           5.169000      3.141000     -1.627000
C          11.739000      3.209000      0.581000
C           5.938000      5.373000     -1.477000
C          10.777000      5.295000     -2.173000
C           8.235000      1.518000      2.583000
C           6.390000      1.619000     -2.926000
C          10.146000      6.262000     -0.015000
C           6.260000      1.066000      1.152000
C          11.615000      4.392000     -1.515000
C           8.001000      5.686000     -2.795000
C          10.297000      0.248000     -0.604000
C          10.939000      0.891000      0.456000
C           8.748000      4.838000     -3.544000
C           9.011000      2.651000      2.830000
C          10.576000      4.713000      1.832000
C           9.007000      0.597000      1.816000
C           7.095000      5.419000      1.949000
C           6.613000      3.976000     -3.363000
C          10.955000      5.359000      0.664000
C          10.166000      4.625000     -3.247000
C           6.923000      1.732000      2.248000
C           8.468000      2.500000     -3.802000
C           5.376000      1.909000      0.502000
C           8.568000      0.509000     -2.758000
C           6.676000      5.206000     -2.710000
C           7.920000      3.736000     -3.869000
C           6.223000      5.489000      0.804000
C           7.217000      4.195000      2.651000
C           9.024000     -0.257000     -0.539000
C           5.827000      2.936000     -2.894000
C          11.546000      3.135000     -2.216000
C          10.282000      1.112000      1.675000
C          10.781000      0.931000     -1.763000
C           6.448000      3.048000      2.185000
C           6.988000      0.168000      0.403000
O          14.721000      0.455000     -1.766000
C          15.233000      1.071000     -0.523000
H          16.154000      1.665000     -0.568000
H          15.290000      0.346000      0.298000
H          14.522000      1.870000     -0.276000
O          14.869000      2.509000     -2.873000
C          14.544000      1.293000     -2.833000
C          14.139000      0.558000     -4.156000
H          14.983000     -0.135000     -4.255000
H          14.265000      1.384000     -4.867000
C          12.760000     -0.023000     -4.197000
H          12.538000     -0.487000     -3.228000
H          12.036000      0.764000     -4.441000
C          12.774000     -1.089000     -5.279000
H          13.416000     -0.817000     -6.126000
H          13.355000     -1.848000     -4.739000
C          11.432000     -1.679000     -5.738000
C          10.861000     -2.759000     -4.842000
C           9.807000     -2.508000     -3.981000
H           9.455000     -1.493000     -3.825000
C           9.190000     -3.498000     -3.202000
H           8.358000     -3.256000     -2.548000
C           9.618000     -4.863000     -3.323000
H           9.212000     -5.757000     -2.859000
C          10.678000     -5.135000     -4.230000
H          10.904000     -6.182000     -4.411000
C          11.316000     -4.103000     -4.982000
H          12.066000     -4.413000     -5.704000
C           8.606000     -3.517000    -10.099000
C           6.861000     -2.564000     -8.741000
C           6.091000      1.121000    -11.278000
C          12.332000     -0.009000    -10.960000
C           7.966000      3.341000     -9.242000
C           8.070000     -3.286000     -8.853000
C          11.065000      2.581000    -10.962000
C           6.502000     -1.197000    -11.972000
C           8.304000      0.437000     -6.501000
C          12.328000      0.753000     -9.748000
C          10.368000     -0.742000     -6.351000
C           9.229000      1.396000     -6.694000
C          11.195000      2.263000     -8.476000
C           9.824000      3.216000    -10.826000
C           8.203000     -1.934000     -6.985000
C           7.614000      2.684000    -11.603000
C          11.158000     -1.734000     -7.190000
C          11.967000     -1.122000     -8.361000
C           7.097000      2.925000    -10.315000
C           9.651000     -0.455000    -13.130000
C           7.691000      0.630000    -13.030000
C           7.425000     -0.742000    -12.888000
C           6.705000     -2.358000    -11.197000
C          11.846000     -1.893000     -9.503000
C           8.895000     -0.854000     -6.354000
C           6.254000     -2.096000     -9.908000
C          11.683000      2.018000     -9.789000
C           6.923000     -1.759000     -7.655000
C           9.043000      2.549000     -7.476000
C          11.242000     -1.836000    -11.880000
C           5.809000     -0.262000    -11.212000
C          10.469000      0.751000     -6.714000
C           8.884000     -2.575000    -12.147000
C           9.978000      2.964000     -8.335000
C           7.020000      0.622000     -7.056000
C           9.759000      1.901000    -12.634000
C          11.066000      1.769000    -12.115000
C           6.740000      1.789000     -7.794000
C          12.050000     -1.399000    -10.781000
C          12.140000      0.253000     -8.488000
C          10.937000     -0.680000    -12.625000
C          10.303000     -2.760000     -7.915000
C           5.666000      0.039000     -8.710000
C          11.404000      1.158000     -7.685000
C           7.796000      2.751000     -8.046000
C          10.178000     -2.746000    -11.590000
C           6.200000      1.927000    -10.104000
C           7.910000     -3.056000    -11.277000
C           7.009000      1.560000    -12.220000
C           6.331000     -0.478000     -7.593000
C           5.949000      1.401000     -8.811000
C           8.902000     -2.894000     -7.760000
C          10.793000     -2.851000     -9.250000
C           9.065000      0.799000    -13.190000
C           5.680000     -0.787000     -9.909000
C           9.315000      3.397000     -9.517000
C          11.613000      0.448000    -12.106000
C           9.016000      2.844000    -11.880000
C           9.973000     -3.290000    -10.288000
C           8.645000     -1.443000    -12.970000
$end

--------------------------------------------------------------
 ----------------------------------------------------------------
             Standard Nuclear Orientation (Angstroms)
    I     Atom           X                Y                Z
 ----------------------------------------------------------------
    1      O     -12.9980882448    -1.1617875025     2.7214768938
    2      C     -14.3164883325    -1.4769695080     2.2184435826
    3      H     -14.8313738856    -2.0363700918     3.0090495869
    4      H     -14.2833673481    -2.1182990989     1.3291920118
    5      H     -14.7809401271    -0.5333443938     1.9060957405
    6      O     -12.9902842154     0.8772758395     1.7093930117
    7      C     -12.4246756198    -0.0050275577     2.3244650659
    8      C     -10.9340122269     0.1182086077     2.7815946936
    9      H     -10.6121083129    -0.8084991506     3.2722509898
   10      H     -10.9894332293     0.8623810093     3.5863710285
   11      C     -10.0212452603     0.7086348003     1.5862309934
   12      H      -9.8981025090    -0.1620270093     0.9320109417
   13      H     -10.6105040201     1.5041576561     1.1128057089
   14      C      -8.6554387995     1.0954554109     2.1248528709
   15      H      -8.8584392656     1.8122702077     2.9305583741
   16      H      -8.2007910054     0.2774033837     2.6960448386
   17      C      -7.7299483154     1.7674013673     1.0725368558
   18      C      -8.1677217440     3.1673115298     0.6386233138
   19      C      -7.7645212423     4.2824132369     1.4367840359
   20      H      -7.0596694002     4.1919468822     2.2587169525
   21      C      -8.1726393235     5.5676873468     1.0140121183
   22      H      -7.7800037358     6.3872220825     1.6096597593
   23      C      -8.8897127119     5.8150982383    -0.1900072363
   24      H      -9.1114315785     6.8379075390    -0.4800932210
   25      C      -9.2346756096     4.7212972882    -0.9683523274
   26      H      -9.7966852052     4.8660809671    -1.8854520497
   27      C      -8.9224182962     3.4478135451    -0.5074005662
   28      H      -9.3723913010     2.6261195062    -1.0566611614
   29      C      -5.0937470864     1.1048322630    -3.6813273894
   30      C      -3.8299461209     2.9111795693    -2.6347952453
   31      C      -0.2061234374     0.2753224609    -1.7027027271
   32      C      -5.6790530496    -2.9601290761    -0.7375619027
   33      C      -1.1777524964    -0.4193100712     1.6562388646
   34      C      -5.0798726795     2.2318646115    -2.8822437979
   35      C      -3.3095031525    -3.2580870214     0.8579371878
   36      C      -1.5801816147     0.4157569009    -3.7096791330
   37      C      -4.0316524358     2.4186228125     1.3549199581
   38      C      -5.6702060790    -2.5095614989     0.5776797441
   39      C      -6.2155619707     1.4836245020     1.0896157883
   40      C      -4.1859721196     1.3164156289     2.2243374410
   41      C      -4.4568958201    -1.4707388468     2.1418494002
   42      C      -2.0963074346    -2.6435804891     1.1605737221
   43      C      -5.1267318183     3.0055630676    -0.7716574054
   44      C      -0.4634852501    -1.6207414793    -0.3811837406
   45      C      -7.1308803847     0.8848494395     0.0292565918
   46      C      -7.0394918803    -0.5997776058    -0.0113965465
   47      C      -0.4139723933    -0.5038734640     0.4474225069
   48      C      -3.1455454959    -2.6650282272    -3.1064130936
   49      C      -1.1393924972    -1.7615479366    -2.7210788098
   50      C      -1.7572916325    -1.0100086209    -3.7218741514
   51      C      -2.7280749633     1.1845139707    -3.9530501002
   52      C      -6.9770074421    -0.9554312114    -1.3463655378
   53      C      -5.1555595715     2.5353326118     0.5749625406
   54      C      -2.6571987586     2.3432614766    -3.1475677719
   55      C      -4.4960386357    -2.6158075641     1.3325092538
   56      C      -3.8305514996     3.3028198865    -1.3314796674
   57      C      -3.0796678126     0.4412037910     2.5613018587
   58      C      -5.5308169714    -2.2873601240    -2.9062237026
   59      C      -0.7669886037     1.0329660033    -2.6948456241
   60      C      -5.4509063878     0.6783879341     2.0034620058
   61      C      -4.0980944231    -0.7976725868    -4.2776562169
   62      C      -3.2136889482    -0.9479774107     2.5080954302
   63      C      -2.7753059008     2.7019939457     0.8171307940
   64      C      -2.0801690021    -3.2485184837    -1.1199101243
   65      C      -3.3046037182    -3.6230952045    -0.5634346924
   66      C      -1.6985308007     1.9391375971     1.1281285032
   67      C      -6.2687950463    -2.1096311157    -1.7354655036
   68      C      -6.3342489083    -1.3363329897     0.9281408488
   69      C      -4.4030893621    -3.1084911299    -2.6121347525
   70      C      -6.8444817819     1.3051770187    -1.3938353119
   71      C      -1.4941639894     2.6451298307    -1.0613552653
   72      C      -5.6040226287    -0.7003157413     1.9218373015
   73      C      -1.8294684254     0.7831906664     2.0174788458
   74      C      -5.3646811166    -1.1836771344    -3.7022436371
   75      C      -0.3696545860     0.6384968061    -0.3393964672
   76      C      -3.9436544912     0.5772479307    -4.2962808795
   77      C      -0.3435282262    -1.1613174967    -1.6899529779
   78      C      -2.6504504287     3.1875100504    -0.5026931424
   79      C      -0.9076524979     1.8447783166    -0.0428628872
   80      C      -5.8877888212     2.3384472475    -1.6994497965
   81      C      -6.8801420996     0.1375553995    -2.1946174896
   82      C      -1.9247747831    -2.8053092045    -2.4080084014
   83      C      -1.4308339962     2.2659688139    -2.3923636182
   84      C      -2.0024769734    -1.4866154360     1.9432541872
   85      C      -4.4962670002    -3.5175214464    -1.2950382762
   86      C      -1.3731995106    -2.6576196527    -0.0267227160
   87      C      -5.9425730549     0.0286720203    -3.3051284964
   88      C      -2.9980300172    -1.5821679709    -4.0096743232
   89      O      -1.0626972711    -5.4785563387     2.7474599695
   90      C      -2.4381761443    -5.8579303059     3.1357668875
   91      H      -2.6606993144    -6.0252460955     4.1967055593
   92      H      -2.8163567674    -6.6929048409     2.5335111759
   93      H      -3.0490140590    -4.9613278124     2.9686980080
   94      O      -1.0580176082    -3.7699194977     4.3433319087
   95      C      -0.5239729223    -4.3983133191     3.3915974506
   96      C       0.9805504086    -4.1368549465     3.0414145468
   97      H       1.4136508479    -5.1023502483     3.3288668587
   98      H       1.2178634892    -3.3915306726     3.8107306251
   99      C       1.2630569134    -3.6375380167     1.6587520144
  100      H       0.6250978269    -4.1753819835     0.9465209625
  101      H       1.0899191898    -2.5552991607     1.6155850457
  102      C       2.7209623470    -3.9562098418     1.3754923905
  103      H       3.3512461882    -3.8604911607     2.2683178009
  104      H       2.6172413148    -5.0406071464     1.2392336906
  105      C       3.3765222953    -3.3285513261     0.1361252367
  106      C       3.0873558638    -4.0324580923    -1.1738957705
  107      C       2.1883724888    -3.5194035959    -2.0925044877
  108      H       1.5628321725    -2.6707435323    -1.8337760412
  109      C       1.9586181026    -4.0892506599    -3.3535029990
  110      H       1.2507865475    -3.6450022345    -4.0464112368
  111      C       2.7207379237    -5.2352848503    -3.7619500737
  112      H       2.7272493280    -5.7553868344    -4.7152703387
  113      C       3.6702944696    -5.7489265203    -2.8374244651
  114      H       4.3303706720    -6.5297227253    -3.2044431202
  115      C       3.8568198063    -5.1743012771    -1.5441394506
  116      H       4.6550194905    -5.5866401131    -0.9336167659
  117      C       8.0276809274    -1.1260225430    -1.8383193281
  118      C       6.3441240494     0.1111224557    -3.0351929599
  119      C       6.8159627899     4.0420288182    -0.8139686642
  120      C       7.2017712739    -0.8017186730     3.2747190293
  121      C       4.0109398140     3.5789518328     1.3089366117
  122      C       6.8100384505    -1.1007223402    -2.4785378050
  123      C       5.9500848622     1.7490725416     3.7647581160
  124      C       8.5336737103     2.4808953764    -1.6114726270
  125      C       2.9804809246     0.3716404892    -0.8617428723
  126      C       5.7736339499    -0.7434028633     3.3561257245
  127      C       3.4500931035    -1.7899799593     0.0211492152
  128      C       2.7154323803     0.5037074673     0.4515973664
  129      C       3.9147195840     0.5131382534     2.9723096195
  130      C       5.5035858846     2.9135266650     3.1271945840
  131      C       4.5277075840    -0.9795078888    -2.1449364373
  132      C       6.3934981901     4.2514345257     1.3414421810
  133      C       4.6752222144    -2.6431956502     0.3095354950
  134      C       5.4331857076    -2.3019394857     1.6169381006
  135      C       5.1345378839     4.2555478894     0.7095276081
  136      C       9.2675243972     1.4193563050     1.5732293950
  137      C       8.6245114558     3.3571609288     0.6457205826
  138      C       9.1438883701     2.5476356207    -0.3781057681
  139      C       8.4055908987     1.2767402012    -2.3349089458
  140      C       6.8013439440    -2.3134094539     1.4138187267
  141      C       3.4749991401    -0.9292291518    -1.1791714655
  142      C       7.1371815671     1.2527312670    -2.9042307693
  143      C       5.1969791165     0.5341825207     3.5867244878
  144      C       5.0079292325     0.2041176827    -2.8423191693
  145      C       2.8538233699     1.6943225646     1.1856359376
  146      C       8.8544778088    -0.9936571912     1.6609812207
  147      C       7.4071283260     3.2639550941    -1.8346025793
  148      C       3.0645188024    -0.7106701657     1.0494691206
  149      C       9.3903430774     0.1060354465    -0.5026034244
  150      C       3.4330540356     1.7049528078     2.3892595639
  151      C       3.3546331249     1.5211051269    -1.5895115015
  152      C       7.7169849586     2.7514176921     2.8498874974
  153      C       7.3499010739     1.6366735559     3.6357812131
  154      C       3.4456882620     2.7642099774    -0.9327525711
  155      C       7.6967652355    -1.6271954594     2.2177260998
  156      C       4.8972371133    -1.4370188985     2.5663350050
  157      C       8.9563843060     0.2605484729     2.2942025233
  158      C       5.7817013988    -2.5180920391    -0.7245722852
  159      C       5.0587303784     2.6125024740    -2.4916342099
  160      C       3.7461465706    -0.6631248558     2.2806628621
  161      C       3.2339019732     2.8374228496     0.5003805153
  162      C       9.0080068628    -1.0410967606     0.2402510152
  163      C       5.4027996407     4.0726195877    -0.6094518710
  164      C       8.8318786566     0.0715233657    -1.7769124164
  165      C       7.4565435765     4.1109802673     0.4139201555
  166      C       4.3341192167     1.4199337272    -2.5912406783
  167      C       4.5083488467     3.3890080127    -1.4720983754
  168      C       5.6794279777    -1.7775608764    -1.9270429685
  169      C       7.0104176057    -2.3862084975    -0.0150166394
  170      C       8.7140420034     2.6592495330     1.8486091746
  171      C       6.5059499858     2.4997906090    -2.6053199328
  172      C       4.2547277559     2.8641877617     2.4614303262
  173      C       7.9792096057     0.3956445314     3.3069214676
  174      C       6.5908870188     3.5738775994     2.5943936014
  175      C       8.1151210384    -1.7694425946    -0.5996491281
  176      C       9.5736717362     1.3316297411     0.1903491193
 ----------------------------------------------------------------
 Molecular Point Group                 C1    NOp =  1
 Largest Abelian Subgroup              C1    NOp =  1
 Nuclear Repulsion Energy = 34851.0627739024 hartrees
 There are      462 alpha and      462 beta electrons
 Requested basis set is 6-31G(d,p)
 There are 676 shells and 2360 basis functions

 Total QAlloc Memory Limit  20000 MB
 Mega-Array Size      4888 MB
 MEM_STATIC part      5000 MB
 A cutoff of  1.0D-08 yielded  38476 shell pairs
 There are    538991 function pairs
 
 -------------------------------------------------------
 OpenMP Integral Computing Module                       
 Release: version 1.0, May 2013, Q-Chem Inc. Pittsburgh 
 -------------------------------------------------------
 Integral Job Info:
 Integral job number is                      11
 Integral operator is                         1
 short-range coefficients                     0
 long-range coefficients              100000000
 Omega coefficients                           0
 if combine SR and LR in K                    0
 Integral screening is                        0
 Integral computing path is                   2
 max size of driver memory is            800000
 size of driver memory is                593474
 size of scratch memory is              2260544
 max col of scratch BK array               1296
 max len of scratch array in speh3          155
 max len of scratch index in speh4           18
 max int batch size is                      520
 min int batch size is                       52
 fixed nKL is                                52
 max L of basis functions is                  2
 order of int derivative is                   0
 number of shells is                        676
 number of basis is                        2360
 number of cartesian basis is              2360
 number of contracted shell pairs         38476
 number of primitive shell pairs         115776
 maxK2 (contraction) of shell pair           36
 max number of K2 of shell pair               1
 max number of CS2 of shell pair           7351
 max number of PS2 of shell pair          35046
 mem total for path MDJ                 1535240
 -------------------------------------------------------
 Smallest overlap matrix eigenvalue = 2.51E-04

 Scale SEOQF with 1.000000e-02/1.000000e-02/1.000000e-01

 Standard Electronic Orientation quadrupole field applied
 Nucleus-field energy     =    -0.0000003046 hartrees
 Guess from superposition of atomic densities
 Warning:  Energy on first SCF cycle will be non-variational
 A restricted hybrid HF-DFT SCF calculation will be
 performed using Pulay DIIS extrapolation
 Exchange:     0.2000 Hartree-Fock + 0.0800 Slater + 0.7200 B88
 Correlation:  0.1900 VWN1RPA + 0.8100 LYP
 Using SG-1 standard quadrature grid
 SCF converges when DIIS error is below 1.0E-05
 using 16 threads for integral computing 
 -------------------------------------------------------
 OpenMP BLAS3 based DFT computing Module                
 Release: version 1.0, May 2013, Q-Chem Inc. Pittsburgh 
 -------------------------------------------------------
 ---------------------------------------
  Cycle       Energy         DIIS Error
 ---------------------------------------
    1   -5857.8223851321      1.82E-02
    2   -5803.1351761169      1.29E-03
    3   -5802.3021449280      1.81E-03
    4   -5803.9830180334      6.51E-04
    5   -5804.2058289980      2.96E-04
    6   -5804.2571285792      1.44E-04
    7   -5804.2711573604      4.76E-05
    8   -5804.2720478382      3.19E-05
    9   -5804.2727537120      1.04E-05
   10   -5804.2727600543      2.96E-06 Convergence criterion met
 ---------------------------------------
 SCF time:  CPU 7937.26 s  wall 920.58 s
 SCF   energy in the final basis set = -5804.2727600543
 Total energy in the final basis set = -5804.2727600543
 
 --------------------------------------------------------------
 
                    Orbital Energies (a.u.)
 --------------------------------------------------------------
 
 Alpha MOs
 -- Occupied --
-19.203 -19.197 -19.138 -19.132 -10.321 -10.318 -10.246 -10.246
-10.243 -10.243 -10.243 -10.239 -10.239 -10.239 -10.231 -10.230
-10.229 -10.227 -10.227 -10.227 -10.227 -10.227 -10.225 -10.224
-10.223 -10.223 -10.222 -10.222 -10.222 -10.222 -10.221 -10.221
-10.220 -10.220 -10.220 -10.220 -10.220 -10.219 -10.219 -10.219
-10.219 -10.219 -10.218 -10.218 -10.218 -10.218 -10.218 -10.218
-10.218 -10.218 -10.218 -10.218 -10.218 -10.217 -10.217 -10.217
-10.217 -10.217 -10.217 -10.217 -10.217 -10.216 -10.216 -10.216
-10.216 -10.216 -10.216 -10.216 -10.216 -10.216 -10.216 -10.216
-10.216 -10.215 -10.215 -10.215 -10.215 -10.215 -10.215 -10.215
-10.214 -10.214 -10.214 -10.214 -10.214 -10.214 -10.214 -10.214
-10.214 -10.214 -10.214 -10.214 -10.214 -10.214 -10.213 -10.213
-10.213 -10.213 -10.213 -10.213 -10.212 -10.212 -10.212 -10.212
-10.212 -10.212 -10.212 -10.212 -10.212 -10.211 -10.211 -10.211
-10.211 -10.210 -10.210 -10.210 -10.210 -10.210 -10.210 -10.210
-10.210 -10.209 -10.209 -10.209 -10.209 -10.209 -10.206 -10.206
-10.206 -10.205 -10.205 -10.204 -10.203 -10.203 -10.202 -10.202
-10.202 -10.202 -10.201 -10.201 -10.200 -10.199 -10.199 -10.199
-10.197 -10.197 -10.194 -10.193  -1.100  -1.082  -1.015  -0.991
 -0.984  -0.980  -0.967  -0.964  -0.963  -0.961  -0.960  -0.957
 -0.935  -0.932  -0.927  -0.926  -0.924  -0.924  -0.923  -0.922
 -0.921  -0.919  -0.896  -0.895  -0.889  -0.889  -0.888  -0.884
 -0.873  -0.872  -0.852  -0.847  -0.844  -0.842  -0.839  -0.838
 -0.834  -0.833  -0.822  -0.821  -0.810  -0.801  -0.799  -0.797
 -0.796  -0.795  -0.794  -0.793  -0.790  -0.790  -0.785  -0.779
 -0.774  -0.772  -0.769  -0.769  -0.767  -0.762  -0.760  -0.758
 -0.748  -0.745  -0.744  -0.739  -0.733  -0.732  -0.720  -0.717
 -0.713  -0.713  -0.712  -0.711  -0.711  -0.710  -0.709  -0.708
 -0.707  -0.706  -0.705  -0.702  -0.702  -0.701  -0.675  -0.671
 -0.662  -0.659  -0.654  -0.654  -0.648  -0.646  -0.631  -0.630
 -0.629  -0.625  -0.625  -0.623  -0.622  -0.620  -0.619  -0.616
 -0.615  -0.614  -0.613  -0.612  -0.611  -0.611  -0.608  -0.605
 -0.604  -0.602  -0.601  -0.600  -0.568  -0.566  -0.564  -0.564
 -0.562  -0.561  -0.561  -0.559  -0.557  -0.555  -0.553  -0.550
 -0.536  -0.534  -0.533  -0.532  -0.531  -0.528  -0.527  -0.526
 -0.523  -0.521  -0.520  -0.518  -0.516  -0.516  -0.513  -0.511
 -0.509  -0.506  -0.500  -0.494  -0.492  -0.491  -0.486  -0.485
 -0.484  -0.483  -0.482  -0.482  -0.477  -0.477  -0.475  -0.475
 -0.474  -0.473  -0.470  -0.469  -0.468  -0.467  -0.466  -0.465
 -0.464  -0.464  -0.463  -0.461  -0.460  -0.460  -0.458  -0.456
 -0.456  -0.455  -0.454  -0.452  -0.452  -0.447  -0.446  -0.444
 -0.443  -0.440  -0.440  -0.438  -0.437  -0.434  -0.433  -0.432
 -0.430  -0.430  -0.429  -0.428  -0.426  -0.425  -0.425  -0.424
 -0.423  -0.421  -0.420  -0.420  -0.420  -0.419  -0.418  -0.417
 -0.417  -0.416  -0.415  -0.415  -0.414  -0.413  -0.413  -0.412
 -0.410  -0.410  -0.408  -0.408  -0.403  -0.398  -0.397  -0.395
 -0.393  -0.392  -0.390  -0.389  -0.389  -0.387  -0.385  -0.383
 -0.382  -0.378  -0.374  -0.371  -0.370  -0.368  -0.367  -0.366
 -0.364  -0.364  -0.363  -0.362  -0.362  -0.359  -0.358  -0.358
 -0.357  -0.356  -0.355  -0.354  -0.352  -0.352  -0.351  -0.350
 -0.349  -0.349  -0.348  -0.347  -0.346  -0.345  -0.344  -0.344
 -0.342  -0.342  -0.340  -0.340  -0.338  -0.338  -0.335  -0.334
 -0.333  -0.332  -0.331  -0.330  -0.329  -0.326  -0.324  -0.324
 -0.314  -0.310  -0.301  -0.297  -0.286  -0.283  -0.274  -0.274
 -0.272  -0.271  -0.268  -0.266  -0.264  -0.264  -0.264  -0.263
 -0.262  -0.260  -0.259  -0.259  -0.257  -0.255  -0.254  -0.253
 -0.251  -0.247  -0.245  -0.242  -0.223  -0.221  -0.216  -0.211
 -0.210  -0.209  -0.205  -0.203  -0.197  -0.196
 -- Virtual --
 -0.125  -0.122  -0.118  -0.117  -0.111  -0.109  -0.079  -0.077
 -0.077  -0.069  -0.059  -0.056  -0.052  -0.050  -0.028  -0.023
 -0.021  -0.020  -0.019  -0.019  -0.018  -0.016  -0.016  -0.014
 -0.013  -0.012  -0.008  -0.007  -0.006   0.000   0.001   0.002
  0.006   0.008   0.031   0.037   0.039   0.042   0.043   0.045
  0.048   0.050   0.053   0.056   0.060   0.063   0.065   0.066
  0.069   0.073   0.080   0.083   0.084   0.084   0.090   0.091
  0.094   0.096   0.097   0.097   0.100   0.101   0.103   0.105
  0.111   0.111   0.112   0.115   0.115   0.116   0.118   0.120
  0.121   0.122   0.125   0.126   0.129   0.132   0.133   0.135
  0.138   0.139   0.141   0.143   0.146   0.150   0.153   0.154
  0.155   0.156   0.157   0.158   0.161   0.162   0.164   0.165
  0.167   0.169   0.171   0.173   0.175   0.177   0.179   0.180
  0.181   0.183   0.184   0.185   0.188   0.188   0.189   0.190
  0.191   0.194   0.195   0.196   0.199   0.201   0.202   0.202
  0.205   0.208   0.209   0.212   0.213   0.214   0.217   0.219
  0.220   0.220   0.221   0.222   0.223   0.226   0.227   0.228
  0.230   0.231   0.233   0.234   0.236   0.238   0.238   0.239
  0.241   0.243   0.244   0.245   0.247   0.249   0.250   0.255
  0.260   0.265   0.269   0.272   0.273   0.274   0.276   0.277
  0.278   0.281   0.284   0.290   0.291   0.293   0.299   0.302
  0.305   0.306   0.308   0.309   0.311   0.314   0.316   0.319
  0.319   0.321   0.322   0.323   0.325   0.326   0.328   0.332
  0.334   0.337   0.341   0.342   0.343   0.345   0.347   0.349
  0.350   0.353   0.355   0.360   0.366   0.371   0.379   0.383
  0.390   0.391   0.394   0.397   0.398   0.404   0.405   0.407
  0.409   0.413   0.414   0.416   0.417   0.419   0.421   0.424
  0.425   0.427   0.430   0.431   0.435   0.440   0.442   0.445
  0.447   0.448   0.449   0.451   0.452   0.454   0.458   0.459
  0.462   0.466   0.468   0.468   0.469   0.470   0.471   0.473
  0.474   0.476   0.477   0.478   0.480   0.480   0.482   0.483
  0.484   0.485   0.487   0.489   0.491   0.492   0.493   0.494
  0.494   0.496   0.498   0.499   0.500   0.501   0.503   0.504
  0.505   0.505   0.507   0.508   0.509   0.509   0.510   0.511
  0.512   0.512   0.514   0.515   0.517   0.517   0.517   0.518
  0.519   0.520   0.520   0.521   0.521   0.523   0.523   0.524
  0.525   0.525   0.527   0.528   0.528   0.529   0.531   0.532
  0.533   0.533   0.534   0.535   0.535   0.536   0.537   0.538
  0.538   0.539   0.541   0.541   0.542   0.542   0.543   0.544
  0.545   0.546   0.547   0.547   0.548   0.550   0.551   0.551
  0.552   0.552   0.553   0.554   0.555   0.556   0.556   0.557
  0.558   0.558   0.558   0.560   0.561   0.561   0.562   0.563
  0.565   0.566   0.567   0.567   0.568   0.569   0.571   0.571
  0.572   0.574   0.574   0.574   0.575   0.576   0.576   0.577
  0.578   0.579   0.581   0.581   0.582   0.582   0.584   0.586
  0.587   0.587   0.588   0.588   0.589   0.591   0.591   0.592
  0.592   0.594   0.595   0.596   0.596   0.597   0.597   0.598
  0.598   0.600   0.601   0.602   0.602   0.604   0.605   0.608
  0.608   0.610   0.611   0.611   0.613   0.614   0.614   0.616
  0.618   0.618   0.621   0.622   0.622   0.623   0.624   0.626
  0.626   0.627   0.627   0.628   0.631   0.631   0.632   0.633
  0.634   0.635   0.636   0.637   0.639   0.639   0.640   0.642
  0.643   0.644   0.645   0.646   0.647   0.649   0.650   0.650
  0.651   0.652   0.653   0.655   0.655   0.656   0.657   0.658
  0.658   0.660   0.661   0.662   0.662   0.663   0.663   0.665
  0.666   0.666   0.668   0.669   0.669   0.670   0.671   0.672
  0.672   0.673   0.674   0.676   0.677   0.678   0.678   0.680
  0.681   0.682   0.683   0.684   0.686   0.686   0.688   0.690
  0.690   0.692   0.693   0.693   0.695   0.696   0.697   0.697
  0.699   0.700   0.701   0.703   0.704   0.705   0.705   0.707
  0.708   0.709   0.711   0.712   0.712   0.713   0.716   0.716
  0.717   0.718   0.720   0.722   0.723   0.723   0.725   0.725
  0.727   0.728   0.729   0.730   0.731   0.733   0.734   0.736
  0.736   0.737   0.738   0.739   0.740   0.743   0.745   0.747
  0.747   0.750   0.752   0.753   0.754   0.756   0.758   0.758
  0.760   0.762   0.763   0.764   0.766   0.767   0.768   0.770
  0.771   0.771   0.772   0.774   0.776   0.777   0.779   0.780
  0.781   0.782   0.782   0.785   0.785   0.786   0.789   0.789
  0.790   0.791   0.792   0.793   0.794   0.796   0.797   0.798
  0.799   0.800   0.801   0.802   0.802   0.803   0.804   0.805
  0.806   0.807   0.808   0.809   0.810   0.811   0.811   0.812
  0.813   0.813   0.814   0.816   0.816   0.818   0.818   0.818
  0.818   0.820   0.820   0.822   0.823   0.823   0.825   0.826
  0.828   0.828   0.830   0.831   0.835   0.835   0.836   0.838
  0.839   0.839   0.841   0.843   0.847   0.848   0.850   0.851
  0.853   0.858   0.861   0.863   0.864   0.867   0.870   0.873
  0.878   0.879   0.881   0.882   0.885   0.889   0.890   0.894
  0.894   0.895   0.898   0.903   0.904   0.905   0.908   0.909
  0.912   0.916   0.919   0.920   0.924   0.924   0.925   0.928
  0.930   0.931   0.932   0.933   0.934   0.937   0.939   0.941
  0.942   0.942   0.946   0.947   0.950   0.950   0.952   0.954
  0.959   0.960   0.962   0.968   0.970   0.972   0.975   0.976
  0.977   0.979   0.980   0.983   0.986   0.988   0.989   0.991
  0.992   0.998   1.000   1.000   1.001   1.004   1.005   1.008
  1.009   1.011   1.011   1.012   1.014   1.018   1.019   1.020
  1.022   1.023   1.025   1.026   1.027   1.029   1.030   1.031
  1.033   1.036   1.038   1.041   1.042   1.042   1.044   1.046
  1.047   1.049   1.051   1.052   1.054   1.055   1.058   1.060
  1.063   1.064   1.067   1.067   1.068   1.071   1.072   1.073
  1.074   1.075   1.077   1.077   1.080   1.082   1.086   1.087
  1.089   1.091   1.092   1.093   1.095   1.096   1.101   1.102
  1.103   1.104   1.105   1.106   1.110   1.113   1.114   1.118
  1.119   1.122   1.124   1.125   1.127   1.131   1.132   1.136
  1.137   1.139   1.140   1.141   1.143   1.148   1.149   1.151
  1.152   1.154   1.156   1.158   1.159   1.160   1.163   1.165
  1.166   1.167   1.168   1.170   1.171   1.171   1.175   1.175
  1.176   1.178   1.179   1.180   1.181   1.184   1.185   1.188
  1.189   1.190   1.191   1.194   1.196   1.197   1.198   1.200
  1.205   1.207   1.209   1.210   1.213   1.217   1.219   1.224
  1.225   1.230   1.235   1.238   1.238   1.242   1.245   1.250
  1.253   1.256   1.258   1.260   1.261   1.263   1.265   1.265
  1.267   1.269   1.270   1.272   1.275   1.275   1.276   1.278
  1.281   1.283   1.286   1.287   1.288   1.290   1.292   1.294
  1.298   1.303   1.304   1.305   1.309   1.311   1.313   1.315
  1.319   1.321   1.322   1.324   1.326   1.328   1.330   1.332
  1.334   1.337   1.341   1.341   1.342   1.345   1.347   1.350
  1.352   1.353   1.354   1.357   1.358   1.359   1.362   1.364
  1.366   1.370   1.372   1.375   1.381   1.382   1.384   1.385
  1.388   1.389   1.391   1.394   1.397   1.400   1.405   1.407
  1.410   1.412   1.412   1.415   1.420   1.422   1.425   1.430
  1.432   1.436   1.437   1.439   1.441   1.443   1.447   1.451
  1.454   1.456   1.457   1.458   1.459   1.462   1.466   1.467
  1.468   1.469   1.471   1.473   1.476   1.478   1.479   1.480
  1.483   1.485   1.486   1.488   1.491   1.493   1.495   1.498
  1.500   1.502   1.503   1.507   1.508   1.510   1.512   1.515
  1.519   1.522   1.524   1.529   1.531   1.532   1.534   1.536
  1.538   1.539   1.542   1.542   1.545   1.545   1.551   1.553
  1.555   1.557   1.561   1.564   1.566   1.567   1.570   1.571
  1.575   1.578   1.580   1.580   1.583   1.586   1.589   1.591
  1.594   1.597   1.599   1.604   1.611   1.613   1.616   1.621
  1.625   1.629   1.631   1.632   1.634   1.638   1.641   1.643
  1.644   1.649   1.650   1.656   1.658   1.661   1.663   1.666
  1.671   1.673   1.676   1.682   1.685   1.687   1.691   1.694
  1.696   1.698   1.701   1.704   1.706   1.708   1.712   1.713
  1.716   1.716   1.720   1.721   1.723   1.724   1.726   1.730
  1.732   1.732   1.733   1.735   1.736   1.739   1.741   1.742
  1.744   1.746   1.746   1.748   1.751   1.752   1.753   1.754
  1.755   1.757   1.758   1.759   1.762   1.763   1.764   1.765
  1.766   1.768   1.769   1.772   1.773   1.773   1.776   1.776
  1.778   1.779   1.781   1.783   1.783   1.786   1.788   1.790
  1.791   1.792   1.793   1.795   1.796   1.796   1.799   1.800
  1.801   1.801   1.802   1.805   1.806   1.806   1.808   1.809
  1.810   1.811   1.813   1.814   1.815   1.817   1.820   1.821
  1.822   1.824   1.826   1.828   1.832   1.834   1.837   1.838
  1.842   1.843   1.843   1.846   1.848   1.852   1.853   1.856
  1.858   1.859   1.861   1.862   1.863   1.865   1.866   1.869
  1.871   1.872   1.873   1.876   1.878   1.878   1.880   1.885
  1.886   1.888   1.891   1.893   1.896   1.899   1.900   1.902
  1.904   1.908   1.909   1.913   1.915   1.918   1.920   1.923
  1.925   1.925   1.927   1.929   1.931   1.935   1.936   1.937
  1.939   1.941   1.942   1.944   1.947   1.949   1.951   1.952
  1.954   1.955   1.957   1.957   1.959   1.965   1.967   1.967
  1.969   1.971   1.973   1.975   1.977   1.979   1.979   1.982
  1.985   1.986   1.988   1.990   1.990   1.992   1.993   1.994
  1.996   1.997   1.998   2.000   2.001   2.002   2.002   2.004
  2.006   2.006   2.008   2.008   2.009   2.012   2.013   2.014
  2.015   2.016   2.018   2.019   2.019   2.020   2.021   2.022
  2.024   2.025   2.029   2.030   2.031   2.032   2.032   2.034
  2.036   2.037   2.037   2.039   2.040   2.041   2.042   2.044
  2.046   2.046   2.047   2.048   2.050   2.051   2.051   2.055
  2.056   2.057   2.057   2.060   2.061   2.061   2.063   2.064
  2.066   2.066   2.068   2.069   2.070   2.073   2.073   2.074
  2.075   2.079   2.081   2.082   2.084   2.085   2.088   2.089
  2.089   2.092   2.094   2.094   2.097   2.099   2.100   2.101
  2.103   2.106   2.109   2.111   2.114   2.116   2.119   2.123
  2.127   2.128   2.132   2.135   2.137   2.140   2.143   2.144
  2.146   2.147   2.149   2.155   2.159   2.162   2.169   2.169
  2.173   2.181   2.186   2.187   2.194   2.198   2.203   2.204
  2.208   2.211   2.215   2.216   2.219   2.221   2.222   2.225
  2.228   2.231   2.233   2.234   2.238   2.239   2.241   2.242
  2.247   2.248   2.249   2.252   2.254   2.257   2.257   2.262
  2.265   2.266   2.270   2.271   2.272   2.276   2.276   2.278
  2.283   2.284   2.287   2.288   2.291   2.292   2.296   2.298
  2.300   2.302   2.304   2.305   2.308   2.310   2.313   2.316
  2.318   2.322   2.324   2.326   2.330   2.332   2.333   2.337
  2.339   2.340   2.341   2.343   2.347   2.349   2.350   2.351
  2.352   2.353   2.356   2.359   2.360   2.363   2.364   2.365
  2.367   2.370   2.372   2.373   2.374   2.376   2.377   2.380
  2.382   2.384   2.384   2.386   2.387   2.388   2.389   2.392
  2.393   2.393   2.397   2.399   2.402   2.404   2.405   2.406
  2.408   2.411   2.412   2.414   2.416   2.418   2.420   2.422
  2.423   2.426   2.428   2.432   2.433   2.438   2.442   2.444
  2.447   2.449   2.450   2.452   2.455   2.456   2.458   2.460
  2.461   2.463   2.465   2.469   2.469   2.471   2.474   2.477
  2.477   2.480   2.481   2.482   2.483   2.485   2.488   2.491
  2.494   2.495   2.498   2.498   2.500   2.504   2.505   2.507
  2.511   2.512   2.513   2.514   2.519   2.520   2.521   2.522
  2.524   2.526   2.527   2.533   2.535   2.536   2.540   2.541
  2.545   2.548   2.550   2.550   2.555   2.558   2.561   2.563
  2.567   2.569   2.571   2.573   2.577   2.578   2.583   2.584
  2.589   2.590   2.592   2.595   2.596   2.600   2.601   2.603
  2.607   2.607   2.608   2.609   2.612   2.614   2.615   2.617
  2.617   2.621   2.624   2.625   2.627   2.627   2.628   2.631
  2.632   2.633   2.635   2.640   2.642   2.644   2.646   2.646
  2.648   2.648   2.651   2.652   2.655   2.655   2.657   2.659
  2.662   2.662   2.665   2.667   2.668   2.670   2.671   2.674
  2.676   2.676   2.678   2.679   2.682   2.685   2.686   2.689
  2.691   2.695   2.696   2.700   2.702   2.703   2.704   2.711
  2.712   2.715   2.717   2.718   2.720   2.723   2.727   2.727
  2.729   2.730   2.733   2.735   2.736   2.737   2.740   2.742
  2.744   2.747   2.747   2.749   2.752   2.755   2.755   2.758
  2.763   2.763   2.764   2.766   2.767   2.771   2.771   2.774
  2.775   2.777   2.781   2.784   2.787   2.790   2.791   2.795
  2.797   2.798   2.802   2.804   2.806   2.812   2.814   2.820
  2.821   2.823   2.825   2.829   2.833   2.836   2.838   2.842
  2.844   2.845   2.847   2.851   2.856   2.857   2.859   2.861
  2.862   2.863   2.863   2.868   2.870   2.871   2.872   2.874
  2.875   2.876   2.877   2.879   2.882   2.883   2.886   2.886
  2.889   2.891   2.893   2.894   2.896   2.898   2.901   2.905
  2.905   2.907   2.909   2.912   2.913   2.915   2.917   2.917
  2.920   2.921   2.923   2.925   2.926   2.928   2.931   2.932
  2.934   2.936   2.939   2.941   2.942   2.945   2.946   2.949
  2.953   2.955   2.958   2.962   2.965   2.969   2.970   2.976
  2.978   2.979   2.985   2.987   2.989   2.993   2.997   2.999
  3.002   3.003   3.004   3.008   3.011   3.013   3.014   3.015
  3.018   3.022   3.024   3.026   3.031   3.035   3.035   3.038
  3.041   3.045   3.047   3.047   3.054   3.055   3.060   3.064
  3.069   3.071   3.076   3.079   3.080   3.087   3.089   3.089
  3.098   3.106   3.115   3.120   3.124   3.128   3.132   3.136
  3.155   3.159   3.163   3.167   3.174   3.175   3.180   3.185
  3.190   3.190   3.191   3.200   3.224   3.228   3.233   3.235
  3.242   3.245   3.251   3.260   3.262   3.263   3.266   3.270
  3.282   3.287   3.304   3.311   3.312   3.313   3.319   3.325
  3.326   3.335   3.339   3.348   3.350   3.360   3.376   3.383
  3.396   3.410   3.426   3.426   3.431   3.434   3.440   3.449
  3.450   3.451   3.458   3.462   3.465   3.473   3.477   3.487
  3.487   3.507   3.509   3.511   3.516   3.524   3.530   3.531
  3.541   3.557   3.559   3.566   3.580   3.583   3.590   3.596
  3.601   3.618   3.677   3.678   3.841   3.851   3.964   4.029
  4.068   4.077   4.077   4.079   4.083   4.088   4.090   4.095
  4.098   4.104   4.106   4.107   4.109   4.111   4.119   4.124
  4.126   4.129   4.130   4.136   4.140   4.147   4.150   4.154
  4.159   4.160   4.162   4.166   4.170   4.172   4.175   4.179
  4.183   4.187   4.197   4.206   4.213   4.227   4.238   4.240
  4.243   4.246   4.251   4.252   4.253   4.256   4.261   4.270
  4.272   4.280   4.284   4.288   4.291   4.293   4.299   4.306
  4.312   4.321   4.326   4.329   4.367   4.377   4.387   4.388
  4.391   4.396   4.398   4.401   4.409   4.414   4.415   4.417
  4.422   4.430   4.435   4.437   4.439   4.451   4.456   4.471
  4.483   4.486   4.500   4.506   4.529   4.541   4.550   4.552
  4.556   4.569   4.597   4.608   4.622   4.627   4.628   4.633
  4.636   4.644   4.672   4.676   4.688   4.690   4.692   4.697
  4.703   4.704   4.707   4.714   4.731   4.764   4.791   4.826
  4.828   4.845   4.855   4.862   4.867   4.877   4.882   4.894
  4.900   4.905   4.945   4.956   4.964   4.970   4.976   4.977
  4.983   4.984   4.991   5.003   5.150   5.155   5.162   5.168
  5.188   5.207   5.216   5.217   5.316   5.328   5.334   5.341
  5.348   5.364
 --------------------------------------------------------------
 
          Ground-State Mulliken Net Atomic Charges

     Atom                 Charge (a.u.)
  ----------------------------------------
      1 O                    -0.458049
      2 C                    -0.102330
      3 H                     0.127105
      4 H                     0.124111
      5 H                     0.149016
      6 O                    -0.471383
      7 C                     0.586066
      8 C                    -0.266765
      9 H                     0.120924
     10 H                     0.133467
     11 C                    -0.183036
     12 H                     0.110699
     13 H                     0.144823
     14 C                    -0.191816
     15 H                     0.110142
     16 H                     0.108584
     17 C                     0.025679
     18 C                     0.079000
     19 C                    -0.105628
     20 H                     0.096175
     21 C                    -0.096416
     22 H                     0.085721
     23 C                    -0.079108
     24 H                     0.094292
     25 C                    -0.083112
     26 H                     0.096193
     27 C                    -0.109120
     28 H                     0.090144
     29 C                    -0.001692
     30 C                    -0.007099
     31 C                     0.011225
     32 C                    -0.025327
     33 C                    -0.008742
     34 C                    -0.025002
     35 C                    -0.046075
     36 C                    -0.019951
     37 C                     0.027948
     38 C                    -0.015274
     39 C                    -0.104465
     40 C                    -0.011341
     41 C                    -0.001953
     42 C                     0.018118
     43 C                    -0.018946
     44 C                     0.012585
     45 C                    -0.092238
     46 C                     0.062281
     47 C                     0.013971
     48 C                    -0.000768
     49 C                     0.028004
     50 C                    -0.010148
     51 C                     0.024550
     52 C                     0.009611
     53 C                     0.036665
     54 C                     0.010599
     55 C                     0.014425
     56 C                    -0.010896
     57 C                    -0.018971
     58 C                    -0.019374
     59 C                    -0.010090
     60 C                     0.033646
     61 C                    -0.014651
     62 C                    -0.005385
     63 C                     0.008193
     64 C                     0.016611
     65 C                    -0.007526
     66 C                    -0.008377
     67 C                     0.020543
     68 C                     0.011003
     69 C                    -0.002712
     70 C                     0.029559
     71 C                     0.007908
     72 C                     0.000777
     73 C                    -0.004807
     74 C                     0.005868
     75 C                     0.017037
     76 C                     0.004200
     77 C                    -0.050701
     78 C                     0.000617
     79 C                    -0.014438
     80 C                     0.041161
     81 C                    -0.031531
     82 C                     0.000774
     83 C                    -0.019057
     84 C                     0.046359
     85 C                    -0.002341
     86 C                    -0.012148
     87 C                     0.004212
     88 C                     0.001718
     89 O                    -0.463598
     90 C                    -0.098483
     91 H                     0.136131
     92 H                     0.126708
     93 H                     0.131597
     94 O                    -0.496920
     95 C                     0.584866
     96 C                    -0.245937
     97 H                     0.125894
     98 H                     0.143653
     99 C                    -0.184572
    100 H                     0.126000
    101 H                     0.119883
    102 C                    -0.209971
    103 H                     0.111350
    104 H                     0.120473
    105 C                     0.023868
    106 C                     0.078864
    107 C                    -0.092069
    108 H                     0.091098
    109 C                    -0.107589
    110 H                     0.093805
    111 C                    -0.082017
    112 H                     0.094732
    113 C                    -0.094040
    114 H                     0.088547
    115 C                    -0.109406
    116 H                     0.093181
    117 C                    -0.005285
    118 C                     0.015863
    119 C                    -0.010257
    120 C                    -0.030548
    121 C                    -0.031080
    122 C                    -0.011389
    123 C                    -0.014146
    124 C                     0.024063
    125 C                     0.011999
    126 C                     0.004210
    127 C                    -0.069511
    128 C                     0.014156
    129 C                    -0.031387
    130 C                     0.016358
    131 C                    -0.012696
    132 C                    -0.021290
    133 C                    -0.096097
    134 C                     0.010178
    135 C                    -0.008335
    136 C                     0.002309
    137 C                     0.003605
    138 C                    -0.005967
    139 C                    -0.009243
    140 C                     0.046866
    141 C                     0.026031
    142 C                     0.011383
    143 C                     0.007968
    144 C                     0.014152
    145 C                     0.019653
    146 C                    -0.020446
    147 C                    -0.023305
    148 C                     0.002848
    149 C                     0.013396
    150 C                    -0.014443
    151 C                    -0.011994
    152 C                    -0.003282
    153 C                    -0.011341
    154 C                     0.005059
    155 C                    -0.019461
    156 C                     0.001612
    157 C                     0.014486
    158 C                     0.041186
    159 C                    -0.021804
    160 C                     0.014019
    161 C                     0.004941
    162 C                    -0.003217
    163 C                     0.038438
    164 C                    -0.007657
    165 C                     0.002005
    166 C                    -0.014250
    167 C                     0.001409
    168 C                    -0.000011
    169 C                    -0.009917
    170 C                     0.013926
    171 C                    -0.004997
    172 C                     0.018411
    173 C                     0.010178
    174 C                    -0.009266
    175 C                    -0.000540
    176 C                    -0.017113
  ----------------------------------------
  Sum of atomic charges =     0.000000

 -----------------------------------------------------------------
                    Cartesian Multipole Moments
 -----------------------------------------------------------------
    Charge (ESU x 10^10)
                 0.0000
    Dipole Moment (Debye)
         X      -3.9612      Y      -3.0474      Z      -0.6527
       Tot       5.0402
    Quadrupole Moments (Debye-Ang)
        XX    -787.1747     XY       3.5827     YY    -782.0917
        XZ     -12.0710     YZ       1.8324     ZZ    -813.9647
    Octopole Moments (Debye-Ang^2)
       XXX    -803.8622    XXY    -327.0766    XYY    -174.1397
       YYY    -161.7279    XXZ     108.0730    XYZ      59.8694
       YYZ      36.7377    XZZ    -152.9853    YZZ     -36.7990
       ZZZ       7.6164
    Hexadecapole Moments (Debye-Ang^3)
      XXXX -165028.1239   XXXY    3920.9516   XXYY  -32744.6885
      XYYY    -988.2381   YYYY  -31867.8747   XXXZ   -2120.2964
      XXYZ    -792.3704   XYYZ    -396.4636   YYYZ    -312.8887
      XXZZ  -31738.9211   XYZZ    -257.0901   YYZZ   -9168.5804
      XZZZ    -858.8082   YZZZ     154.5228   ZZZZ  -23702.7109
 -----------------------------------------------------------------
Archival summary:
1\1\mn366\SP\ProcedureUnspecified\6-31G**\428\afmv_a\SatOct617:44:292018SatOct617:44:292018\0\\#,ProcedureUnspecified,6-31G**,\\0,1\C\C,1,1.38782\C,2,1.35369,1,126.628\C,1,1.39156,2,108.917,3,-147.191,0\C,4,1.39224,1,106.968,2,-4.5606,0\C,3,1.4162,2,117.545,1,5.99016,0\C,6,1.35577,3,106.939,2,138.176,0\C,7,1.39568,6,120.817,3,-143.279,0\C,8,1.373,7,120.047,6,140.274,0\C,7,1.41183,6,109.737,3,4.33778,0\C,10,1.39402,7,108.312,6,-3.5477,0\C,11,1.38541,10,121.966,7,-142.822,0\C,8,1.41229,7,119.606,6,0.576784,0\C,2,1.4203,1,109.718,3,155.088,0\C,14,1.36855,2,120.472,1,-147.27,0\C,4,1.4242,1,117.313,2,136.731,0\C,16,1.39024,4,122.51,1,6.31308,0\C,17,1.39322,16,105.246,4,-146.947,0\C,17,1.39999,16,116.804,4,-6.61316,0\C,19,1.37902,17,124.287,16,4.64745,0\C,20,1.41465,19,109.222,17,-143.717,0\C,21,1.40559,20,107.562,19,-0.975071,0\C,22,1.39664,21,108.217,20,1.39012,0\C,23,1.39749,22,117.867,21,139.104,0\C,24,1.39923,23,124.372,22,5.01011,0\C,25,1.38751,24,106.959,23,-147.072,0\C,26,1.38658,25,120.628,24,144.18,0\C,27,1.38294,26,119.636,25,-135.506,0\C,28,1.38692,27,113.009,26,139.049,0\C,25,1.38958,24,116.534,23,-3.8812,0\C,26,1.39293,25,108.384,24,-2.2115,0\C,31,1.39031,26,120.527,25,144.953,0\C,31,1.3999,26,109.154,25,1.04868,0\C,28,1.40895,27,119.998,26,-3.99545,0\C,34,1.3953,28,127.007,27,144.879,0\C,35,1.3709,34,116.664,28,-6.96933,0\C,36,1.40052,35,118.833,34,0.462362,0\C,29,1.41629,28,107.797,27,-1.34704,0\C,37,1.42132,36,109.509,35,-144.78,0\C,39,1.38164,37,118.07,36,148.457,0\C,39,1.40685,37,108.661,36,1.46431,0\C,41,1.38369,39,105.992,37,0.485389,0\C,42,1.37746,41,118.646,39,140.325,0\C,43,1.39629,42,121.089,41,-1.9066,0\C,44,1.39578,43,108.695,42,-141.425,0\C,45,1.34323,44,109.067,43,-2.15791,0\C,46,1.37105,45,122.441,44,141.274,0\C,47,1.39614,46,124.097,45,-137.28,0\C,41,1.4015,39,116.072,37,138.829,0\C,48,1.4023,47,121.14,46,2.53054,0\C,50,1.38229,48,117.523,47,-3.9242,0\C,49,1.40281,41,120.982,39,-138.01,0\C,49,1.41298,41,122.578,39,6.28467,0\C,53,1.40029,49,119.956,41,-1.43584,0\C,54,1.36089,53,117.891,49,-135.731,0\C,46,1.41341,45,108.223,44,6.34034,0\C,9,1.42665,8,123.208,7,3.30379,0\C,57,1.37297,9,117.807,8,-136.952,0\C,30,1.43813,25,117.363,24,-143.508,0\C,27,1.48799,26,122.869,25,3.8727,0\C,60,1.49205,27,129.341,26,62.5522,0\C,61,1.5296,60,117.252,27,156.958,0\C,62,1.40058,61,124.725,60,-47.0157,0\H,63,1.08598,62,119.051,61,-10.25,0\C,63,1.38987,62,125.165,61,174.57,0\H,65,1.08531,63,121.253,62,-177.866,0\C,65,1.38608,63,118.744,62,6.23761,0\H,67,1.08602,65,122.847,63,179.29,0\C,67,1.42305,65,117.602,63,-2.99675,0\H,69,1.08655,67,120.983,65,-173.239,0\C,69,1.41323,67,123.831,65,-1.81145,0\H,71,1.08654,69,119.298,67,-168.135,0\C,61,1.55416,60,117.181,27,14.5636,0\H,73,1.09644,61,115.365,60,-56.8771,0\H,73,1.09736,61,108.958,60,-168.922,0\C,73,1.51828,61,113.931,60,74.0919,0\H,76,1.096,73,108.245,61,-72.944,0\H,76,1.09737,73,116.834,61,54.9084,0\C,76,1.61575,73,109.806,61,176.011,0\H,79,1.09688,76,118.286,73,63.6292,0\H,79,1.09751,76,108.859,73,-56.0687,0\C,79,1.56404,76,110.547,73,-168.147,0\O,82,1.21519,79,122.299,76,44.5162,0\O,82,1.35075,79,112.716,76,-137.289,0\C,84,1.44588,82,118.132,79,172.151,0\H,85,1.09686,84,106.764,82,147.468,0\H,85,1.09689,84,112.456,82,-94.8925,0\H,85,1.09713,84,107.312,82,21.9585,0\H,5,2.43583,4,85.3224,1,-123.667,0\C,89,1.08557,5,161.712,4,-107.328,0\C,90,1.38392,89,120.393,5,143.846,0\C,90,1.40272,89,115.942,5,-32.2164,0\H,92,1.08559,90,120.953,89,-4.76067,0\C,91,1.42582,90,118.365,89,-178.024,0\H,94,1.08622,91,123.684,90,-173.617,0\C,94,1.42744,91,119.152,90,0.304667,0\H,96,1.0863,94,121.068,91,-171.521,0\C,96,1.42135,94,122.083,91,1.28257,0\H,98,1.08599,96,113.199,94,-177.653,0\C,91,1.51501,90,121.715,89,8.71315,0\C,100,1.47865,91,118.973,90,107.348,0\C,101,1.51965,100,126.717,91,-2.12693,0\C,102,1.4159,101,124.637,100,-66.7418,0\C,103,1.41804,102,118.915,101,-6.69472,0\C,102,1.42499,101,107.254,100,152.868,0\C,105,1.39376,102,121.032,101,155.744,0\C,106,1.39855,105,121.705,102,-7.18646,0\C,107,1.37593,106,118.418,105,-0.52918,0\C,108,1.41262,107,119.407,106,-133.834,0\C,109,1.35324,108,109.175,107,141.897,0\C,109,1.3962,108,118.498,107,0.574877,0\C,111,1.39053,109,124.796,108,-4.29559,0\C,112,1.39486,111,115.318,109,5.07115,0\C,113,1.39174,112,117.872,111,132.653,0\C,112,1.41059,111,107.911,109,142.773,0\C,115,1.37768,112,122.732,111,-139.111,0\C,115,1.38999,112,108.965,111,5.82077,0\C,116,1.40474,115,121.107,112,140.133,0\C,118,1.39357,116,108.466,115,-139.042,0\C,119,1.38546,118,107.595,116,0.787223,0\C,120,1.3998,119,123.345,118,148.469,0\C,121,1.40868,120,121.44,119,-143.175,0\C,118,1.4093,116,119.656,115,-0.281337,0\C,123,1.38665,118,120.126,116,-0.69741,0\C,116,1.40944,115,117.022,112,3.91107,0\C,117,1.4107,115,107.474,112,-5.30706,0\C,110,1.41254,109,123.745,108,-144.984,0\C,127,1.399,110,119.954,109,1.88785,0\C,128,1.39475,127,108.799,110,140.894,0\C,129,1.34555,128,110.251,127,1.38962,0\C,127,1.40467,110,121.425,109,135.431,0\C,131,1.41099,127,119.608,110,3.37529,0\C,132,1.34631,131,118.388,127,-142.292,0\C,133,1.39786,132,106.43,131,149.575,0\C,133,1.40554,132,124.972,131,3.77527,0\C,135,1.33579,133,121.333,132,135.165,0\C,135,1.3859,133,117.87,132,-3.06133,0\C,137,1.3444,135,108.426,133,145.414,0\C,138,1.37788,137,108.614,135,-6.23232,0\C,134,1.40809,133,117.744,132,-137.844,0\C,140,1.37491,134,121.876,133,-8.50958,0\C,121,1.41376,120,116.326,119,-2.87019,0\C,119,1.41604,118,122.175,116,143.399,0\C,143,1.41246,119,121.672,118,-143.521,0\C,144,1.41023,143,104.238,119,140.84,0\C,145,1.40064,144,109.941,143,2.27865,0\C,146,1.37919,145,108.82,144,0.634711,0\C,140,1.41617,134,123.463,133,133.401,0\C,148,1.36856,140,111.098,134,-144.447,0\C,148,1.39165,140,121.001,134,-0.385531,0\C,150,1.3832,148,119.095,140,-134.872,0\C,151,1.38526,150,123.369,148,-8.19221,0\C,123,1.41778,118,124.526,116,-137.837,0\C,153,1.40866,123,112.144,118,142.13,0\C,154,1.35836,153,104.993,123,-1.98786,0\C,114,1.41913,113,110.557,112,-143.036,0\C,149,1.42054,148,106.831,140,0.801324,0\C,132,1.42744,131,122.402,127,5.61846,0\C,142,1.42798,121,106.262,120,-142.144,0\C,158,1.47725,132,110.15,131,-154.203,0\C,100,1.53615,91,115.236,90,-103.962,0\H,161,1.09707,100,112.072,91,-145.847,0\H,161,1.09784,100,110.107,91,-30.6379,0\C,161,1.51897,100,118.316,91,80.8451,0\H,164,1.09685,161,110.559,100,49.6114,0\H,164,1.09706,161,109.525,100,-73.6307,0\C,164,1.49696,161,106.463,100,168.602,0\H,167,1.09653,164,117.47,161,40.64,0\H,167,1.09712,164,112.349,161,-87.2803,0\C,167,1.56671,164,116.317,161,159.041,0\O,170,1.25932,167,119.531,164,120.269,0\O,170,1.36823,167,113.869,164,-70.2805,0\C,172,1.47873,170,116.434,167,-174.17,0\H,173,1.09677,172,111.83,170,-176.632,0\H,173,1.09686,172,118.805,170,53.2427,0\H,173,1.09769,172,105.551,170,-56.7118,0\\\@

 Total job time:  936.64s(wall), 7965.11s(cpu) 
 Sat Oct  6 17:44:29 2018

        *************************************************************
        *                                                           *
        *  Thank you very much for using Q-Chem.  Have a nice day.  *
        *                                                           *
        *************************************************************


