
Running Job 1 of 1 ./9/36.qcin
qchem ./9/36.qcin_145453.0 /tmpu/cab_g/afmv_a/scratch_qchem/qchem145453/ 1
/tmpu/appuserlic/qchem4.4/serial-multicore/exe/qcprog.exe_s ./9/36.qcin_145453.0 /tmpu/cab_g/afmv_a/scratch_qchem/qchem145453/
Check license passed

                  Welcome to Q-Chem
     A Quantum Leap Into The Future Of Chemistry


 Q-Chem 4.4, Q-Chem, Inc., Pleasanton, CA (2016)

 Y. Shao,  Z. Gan,  E. Epifanovsky,  A. T. B. Gilbert,  M. Wormit,  
 J. Kussmann,  A. W. Lange,  A. Behn,  J. Deng,  X. Feng,  D. Ghosh,  
 M. Goldey,  P. R. Horn,  L. D. Jacobson,  I. Kaliman,  F. Rob,  
 R. Z. Khaliullin,  T. Kus,  A. Landau,  J. Liu,  E. I. Proynov,  Y. M. Rhee,  
 R. M. Richard,  M. A. Rohrdanz,  R. P. Steele,  E. J. Sundstrom,  
 H. L. Woodcock III,  P. M. Zimmerman,  D. Zuev,  B. Albrecht,  E. Alguire,  
 B. Austin,  S. A. Baeppler,  G. J. O. Beran,  Y. A. Bernard,  E. Berquist,  
 K. Brandhorst,  K. B. Bravaya,  S. T. Brown,  D. Casanova,  C.-M. Chang,  
 Y. Chen,  S. H. Chien,  K. D. Closser,  M. P. Coons,  D. L. Crittenden,  
 S. Dasgupta,  M. Diedenhofen,  R. A. DiStasio Jr.,  H. Do,  A. D. Dutoi,  
 R. G. Edgar,  P.-T. Fang,  S. Fatehi,  Q. Feng,  L. Fusti-Molnar,  
 A. Ghysels,  A. Golubeva-Zadorozhnaya,  J. Gomes,  A. Gunina,  
 M. W. D. Hanson-Heine,  P. H. P. Harbach,  A. W. Hauser,  J. E. Herr,  
 E. G. Hohenstein,  Z. C. Holden,  K. Hui,  T.-C. Jagau,  H. Ji,  B. Kaduk,  
 K. Khistyaev,  Jaehoon Kim,  Jihan Kim,  R. A. King,  P. Klunzinger,  
 K. Koh,  D. Kosenkov,  T. Kowalczyk,  C. M. Krauter,  A. Kunitsa,  
 K. U. Lao,  A. Laurent,  K. V. Lawler,  J. Lee,  D. Lefrancois,  S. Lehtola,  
 S. V. Levchenko,  C. Y. Lin,  Y.-S. Lin,  F. Liu,  E. Livshits,  
 R. C. Lochan,  A. Luenser,  P. Manohar,  S. F. Manzer,  S.-P. Mao,  Y. Mao,  
 N. Mardirossian,  A. V. Marenich,  L. A. Martinez-Martinez,  S. A. Maurer,  
 N. J. Mayhall,  J.-M. Mewes,  A. F. Morrison,  K. Nanda,  T. S. Nguyen-Beck,  
 C. M. Oana,  R. Olivares-Amaya,  D. P. O'Neill,  J. A. Parkhill,  
 T. M. Perrine,  R. Peverati,  P. A. Pieniazek,  F. Plasser,  A. Prociuk,  
 D. R. Rehn,  E. Rosta,  N. J. Russ,  N. Sergueev,  S. M. Sharada,  
 S. Sharma,  D. W. Small,  A. Sodt,  T. Stauch,  T. Stein,  D. Stuck,  
 Y.-C. Su,  A. J. W. Thom,  T. Tsuchimochi,  L. Vogt,  O. Vydrov,  T. Wang,  
 M. A. Watson,  J. Wenzel,  A. White,  C. F. Williams,  V. Vanovschi,  
 K. Yao,  S. Yeganeh,  S. R. Yost,  Z.-Q. You,  I. Y. Zhang,  X. Zhang,  
 Y. Zhao,  B. R. Brooks,  G. K. L. Chan,  D. M. Chipman,  C. J. Cramer,  
 W. A. Goddard III,  M. S. Gordon,  W. J. Hehre,  A. Klamt,  
 H. F. Schaefer III,  M. W. Schmidt,  C. D. Sherrill,  D. G. Truhlar,  
 A. Warshel,  X. Xu,  A. Aspuru-Guzik,  R. Baer,  A. T. Bell,  N. A. Besley,  
 J.-D. Chai,  A. Dreuw,  B. D. Dunietz,  T. R. Furlani,  S. R. Gwaltney,  
 C.-P. Hsu,  Y. Jung,  J. Kong,  D. S. Lambrecht,  W. Liang,  C. Ochsenfeld,  
 V. A. Rassolov,  L. V. Slipchenko,  J. E. Subotnik,  T. Van Voorhis,  
 J. M. Herbert,  A. I. Krylov,  P. M. W. Gill,  M. Head-Gordon

 Contributors to earlier versions of Q-Chem not listed above: 
 R. D. Adamson,  J. Baker,  E. F. C. Byrd,  A. K. Chakraborty,  C.-L. Cheng,  
 H. Dachsel,  R. J. Doerksen,  G. Hawkins,  A. Heyden,  S. Hirata,  
 G. Kedziora,  F. J. Keil,  C. Kelley,  P. P. Korambath,  W. Kurlancheek,  
 A. M. Lee,  M. S. Lee,  D. Liotard,  I. Lotan,  P. E. Maslen,  N. Nair,  
 D. Neuhauser,  R. Olson,  B. Peters,  J. Ritchie,  N. E. Schultz,  
 N. Shenvi,  A. C. Simmonett,  K. S. Thanthiriwatte,  Q. Wu,  W. Zhang

 Please cite Q-Chem as follows:
 Y. Shao et al., Mol. Phys. 113, 184-215 (2015)
 DOI: 10.1080/00268976.2014.952696

 Q-Chem 4.4.2 for Intel X86 Linux

 Parts of Q-Chem use Armadillo 5.200.1 (Boston Tea Smuggler).
 http://arma.sourceforge.net/

 Q-Chem begins on Sat Oct  6 18:40:59 2018  

Host: 
0

     Scratch files written to /tmpu/cab_g/afmv_a/scratch_qchem/qchem145453//
 Dec716 11556_ 22328  22283 4050   
Processing $rem in /tmpu/appuserlic/qchem4.4/serial-multicore/config/preferences.
 MEM_TOTAL  2000 
FILE_GEOM_ORG=        593

Checking the input file for inconsistencies... 	...done.

--------------------------------------------------------------
User input:
--------------------------------------------------------------
$comment
SP
$end

$rem
MEM_STATIC 5000
MEM_TOTAL 20000
JOBTYPE SP
EXCHANGE B3LYP
BASIS 6-31g(d,p)
$end

$molecule
0 1
O          10.411000     12.500000      9.085000
C          11.719000     13.031000      8.992000
H          12.404000     12.178000      9.079000
H          11.964000     13.876000      9.646000
H          11.876000     13.515000      8.020000
O           9.356000     14.428000      8.616000
C           9.371000     13.236000      8.803000
C           8.070000     12.470000      8.844000
H           7.956000     12.070000      7.829000
H           7.254000     13.197000      8.947000
C           7.889000     11.419000      9.888000
H           8.647000     10.630000      9.811000
H           8.038000     11.892000     10.867000
C           6.452000     10.870000      9.897000
H           5.790000     11.639000     10.314000
H           6.124000     10.642000      8.875000
C           6.348000      9.600000     10.752000
C           6.544000      9.926000     12.134000
C           5.429000     10.025000     13.026000
H           4.473000      9.902000     12.525000
C           5.545000     10.515000     14.329000
H           4.691000     10.587000     14.997000
C           6.766000     10.571000     14.919000
H           6.835000     10.951000     15.934000
C           7.892000     10.540000     14.075000
H           8.857000     10.654000     14.560000
C           7.780000     10.125000     12.733000
H           8.622000      9.874000     12.094000
C           8.341000      4.532000     11.334000
C           6.119000      4.410000     12.410000
C           4.247000      1.987000      9.048000
C           8.025000      6.418000      6.610000
C           2.731000      4.683000      7.516000
C           7.275000      5.103000     12.138000
C           5.552000      5.586000      5.611000
C           6.444000      1.783000     10.105000
C           3.576000      6.988000     10.667000
C           6.935000      7.257000      6.601000
C           5.459000      8.490000     10.304000
C           3.540000      7.498000      9.320000
C           4.762000      7.417000      6.874000
C           4.410000      4.894000      5.823000
C           5.494000      6.583000     12.062000
C           4.136000      2.810000      6.878000
C           6.918000      8.352000     10.224000
C           7.488000      8.104000      8.858000
C           3.071000      3.331000      7.667000
C           8.164000      2.942000      7.209000
C           6.201000      1.821000      7.622000
C           7.000000      1.829000      8.805000
C           7.024000      2.531000     11.086000
C           8.524000      7.108000      8.859000
C           4.792000      7.497000     11.259000
C           6.013000      3.104000     11.846000
C           5.732000      6.852000      6.041000
C           5.023000      5.283000     12.304000
C           2.977000      6.770000      8.304000
C           9.230000      5.005000      7.953000
C           5.020000      1.837000     10.223000
C           4.600000      8.318000      9.065000
C           8.817000      3.195000      9.577000
C           3.539000      6.752000      7.029000
C           3.098000      5.776000     10.927000
C           6.166000      3.439000      5.800000
C           6.672000      4.722000      5.571000
C           2.530000      5.006000      9.875000
C           8.814000      6.326000      7.732000
C           6.659000      8.110000      7.702000
C           8.733000      4.231000      6.890000
C           7.618000      7.227000     10.976000
C           3.665000      3.531000     11.318000
C           5.286000      8.228000      7.846000
C           2.421000      5.498000      8.579000
C           9.314000      4.455000      9.240000
C           3.179000      2.854000      8.970000
C           8.228000      3.203000     10.863000
C           4.748000      1.880000      7.721000
C           3.807000      4.888000     11.750000
C           2.937000      3.684000     10.102000
C           6.900000      6.483000     11.931000
C           8.559000      6.570000     10.144000
C           6.953000      2.565000      6.613000
C           4.788000      2.665000     11.325000
C           3.400000      5.447000      6.537000
C           7.914000      5.132000      6.122000
C           4.814000      3.571000      5.938000
C           8.930000      5.272000     10.348000
C           8.199000      2.484000      8.550000
O          11.711000      9.004000      7.119000
C          11.495000      9.131000      8.543000
H          12.450000      9.446000      8.981000
H          11.216000      8.179000      9.011000
H          10.645000      9.810000      8.685000
O           9.635000      9.801000      6.632000
C          10.682000      9.287000      6.291000
C          10.988000      8.923000      4.801000
H          11.962000      8.424000      4.727000
H          11.136000      9.907000      4.338000
C           9.709000      8.211000      4.117000
H           9.759000      7.195000      4.525000
H           8.826000      8.758000      4.471000
C           9.908000      8.130000      2.614000
H          10.071000      9.166000      2.291000
H          10.878000      7.687000      2.359000
C           8.688000      7.548000      1.847000
C           7.455000      8.453000      1.828000
C           7.372000      9.466000      0.823000
H           8.079000      9.537000      0.001000
C           6.221000     10.286000      0.818000
H           6.169000     10.990000     -0.008000
C           5.119000     10.110000      1.701000
H           4.241000     10.740000      1.593000
C           5.205000      9.095000      2.641000
H           4.393000      8.939000      3.344000
C           6.376000      8.350000      2.715000
H           6.464000      7.698000      3.579000
C           5.492000      3.158000      1.139000
C           5.180000      4.370000     -0.956000
C           7.649000      1.405000     -3.418000
C          10.334000      2.364000      2.346000
C          10.664000      3.301000     -3.263000
C           5.394000      4.364000      0.472000
C          11.805000      1.945000     -0.085000
C           5.981000      1.013000     -1.686000
C           8.570000      6.395000     -1.736000
C          11.064000      3.409000      1.791000
C           8.913000      6.649000      0.616000
C           9.938000      6.218000     -1.433000
C          11.638000      4.421000     -0.118000
C          11.674000      1.956000     -1.472000
C           6.532000      6.104000     -0.384000
C           9.868000      0.998000     -2.854000
C           8.455000      6.078000      1.952000
C           9.368000      5.011000      2.444000
C           9.800000      2.197000     -3.557000
C           8.370000      0.020000      0.683000
C           8.136000     -0.103000     -1.535000
C           6.873000      0.129000     -0.988000
C           5.281000      1.937000     -0.896000
C           8.564000      3.985000      2.906000
C           7.870000      6.564000     -0.567000
C           5.169000      3.141000     -1.627000
C          11.739000      3.209000      0.581000
C           5.938000      5.373000     -1.477000
C          10.777000      5.295000     -2.173000
C           8.235000      1.518000      2.583000
C           6.390000      1.619000     -2.926000
C          10.146000      6.262000     -0.015000
C           6.260000      1.066000      1.152000
C          11.615000      4.392000     -1.515000
C           8.001000      5.686000     -2.795000
C          10.297000      0.248000     -0.604000
C          10.939000      0.891000      0.456000
C           8.748000      4.838000     -3.544000
C           9.011000      2.651000      2.830000
C          10.576000      4.713000      1.832000
C           9.007000      0.597000      1.816000
C           7.095000      5.419000      1.949000
C           6.613000      3.976000     -3.363000
C          10.955000      5.359000      0.664000
C          10.166000      4.625000     -3.247000
C           6.923000      1.732000      2.248000
C           8.468000      2.500000     -3.802000
C           5.376000      1.909000      0.502000
C           8.568000      0.509000     -2.758000
C           6.676000      5.206000     -2.710000
C           7.920000      3.736000     -3.869000
C           6.223000      5.489000      0.804000
C           7.217000      4.195000      2.651000
C           9.024000     -0.257000     -0.539000
C           5.827000      2.936000     -2.894000
C          11.546000      3.135000     -2.216000
C          10.282000      1.112000      1.675000
C          10.781000      0.931000     -1.763000
C           6.448000      3.048000      2.185000
C           6.988000      0.168000      0.403000
$end

--------------------------------------------------------------
 ----------------------------------------------------------------
             Standard Nuclear Orientation (Angstroms)
    I     Atom           X                Y                Z
 ----------------------------------------------------------------
    1      O      -5.8727932454    -6.3066410618    -1.2026552774
    2      C      -5.7719048453    -7.3745584013    -2.1250695481
    3      H      -5.4382321924    -6.9321185339    -3.0723353632
    4      H      -6.6381968362    -8.0399830902    -2.2173418084
    5      H      -5.0264632410    -8.1081033012    -1.7935311726
    6      O      -6.2987776319    -7.5989835327     0.5857960752
    7      C      -6.0409289481    -6.5388295573     0.0703878829
    8      C      -6.0085802789    -5.2864893044     0.9139727658
    9      H      -4.9491338180    -5.1530528659     1.1649486879
   10      H      -6.4924886463    -5.5134461014     1.8727831247
   11      C      -6.6206726938    -4.0389532675     0.3696431669
   12      H      -6.1475735651    -3.7261655285    -0.5691619485
   13      H      -7.6676727779    -4.2598082699     0.1259530116
   14      C      -6.6581105116    -2.9189583122     1.4235220546
   15      H      -7.4217693429    -3.1708837422     2.1697477356
   16      H      -5.6875837228    -2.8378017327     1.9290350236
   17      C      -7.0056375059    -1.5673481667     0.7854656284
   18      C      -8.3633202560    -1.5805265792     0.3259660316
   19      C      -9.3949803395    -0.9336345130     1.0782280385
   20      H      -9.0402897323    -0.5254611330     2.0203825190
   21      C     -10.7513843194    -1.0711528399     0.7738894884
   22      H     -11.5261947248    -0.5763078354     1.3531314561
   23      C     -11.1222421467    -1.5188190436    -0.4525429157
   24      H     -12.1815945067    -1.6148542800    -0.6714853987
   25      C     -10.1574070116    -2.2165132428    -1.2032019372
   26      H     -10.4927318634    -2.6251511051    -2.1518949019
   27      C      -8.7913907126    -2.1549048076    -0.8627068986
   28      H      -7.9809472232    -2.4838830183    -1.5070986174
   29      C      -5.4097949949     2.0150758034    -3.0374811641
   30      C      -6.7056426665     3.3974871155    -1.4501369115
   31      C      -3.0376656837     5.4524546157     0.2823210035
   32      C      -1.7893980542    -0.6645494939    -0.6530813953
   33      C      -2.8335700419     3.4393057007     3.0786171994
   34      C      -6.5220746996     2.2138137835    -2.1252585631
   35      C      -0.9608477943     0.9066468220     1.5034900976
   36      C      -3.5914088517     4.9063062415    -2.0373264821
   37      C      -6.4266507710     1.8945441875     2.2666235163
   38      C      -2.2535333354    -0.8923134273     0.6215966156
   39      C      -6.3351528796    -0.3320540852     1.2830838535
   40      C      -5.3758581491     1.1298088025     2.8885717911
   41      C      -2.9039746167     0.0212520083     2.5095538012
   42      C      -1.0873655050     2.0677818643     2.1844678376
   43      C      -7.2631881463     1.7326760010     0.0165617593
   44      C      -1.3536917303     4.2431966731     1.3313572052
   45      C      -5.9825118936    -0.8928498917    -0.0266021387
   46      C      -4.5470185870    -1.2878641681    -0.2155007576
   47      C      -2.4340784128     4.4803862598     2.2284038686
   48      C      -1.0718958898     2.3977441903    -2.2556562096
   49      C      -1.3586427776     4.3475300507    -1.0738396752
   50      C      -2.3242976052     4.2831744448    -2.1232791018
   51      C      -4.6710804396     4.2564072587    -2.5571395007
   52      C      -4.0277048358    -0.9035673545    -1.4992227629
   53      C      -6.9626183311     1.0623810681     1.2137966942
   54      C      -5.7349400358     4.4173512093    -1.6794437651
   55      C      -1.7822669155    -0.1467286563     1.6925052535
   56      C      -7.0936666993     3.1185210816    -0.1286997008
   57      C      -4.2684819652     1.7459758560     3.4113194831
   58      C      -2.3287098421     0.3436895433    -2.6392434831
   59      C      -3.9433783139     5.5328535494    -0.8011339531
   60      C      -5.2685876148    -0.1147676774     2.3403497391
   61      C      -3.2387236523     2.4933078568    -3.4361506116
   62      C      -3.0004738114     1.1812527121     3.2886977369
   63      C      -6.3063565178     3.2129273094     2.1551639428
   64      C      -0.2680615970     2.5134718773     0.1033163490
   65      C      -0.4379405348     1.1296978550     0.2076072963
   66      C      -5.1515784599     3.8580355974     2.6772280515
   67      C      -2.6646313994    -0.6545271503    -1.7131451406
   68      C      -3.6159478845    -1.2150263620     0.8575393167
   69      C      -1.1512059439     0.9573658834    -2.1777893474
   70      C      -6.1607890195    -0.0543326061    -1.2860603667
   71      C      -5.7716752752     4.9764721861     0.6996844902
   72      C      -4.0067722932    -0.6595435880     2.0652164959
   73      C      -4.1527395992     3.1546866326     3.3414435016
   74      C      -3.3023972661     1.1055967685    -3.3005718285
   75      C      -3.4448955735     5.1731558561     1.5686153009
   76      C      -4.5175138855     3.0815791863    -3.2968186973
   77      C      -1.6994859863     4.9780211785     0.1953324348
   78      C      -6.6335529396     3.8629590616     0.9555993456
   79      C      -4.8222347697     4.8627045405     1.7568829812
   80      C      -6.8855897412     1.1502455161    -1.2172093599
   81      C      -5.0115650582    -0.1303228793    -2.1124160802
   82      C      -0.5788072984     3.1137814707    -1.1565564625
   83      C      -5.2908237081     5.2119167530    -0.6135107071
   84      C      -2.1015692217     2.2335912223     3.0674191828
   85      C      -0.8965838030     0.3599373319    -0.8930198383
   86      C      -0.6550831268     3.0459745928     1.2995718374
   87      C      -4.6753309044     0.8641808330    -2.9853249871
   88      C      -2.1359766524     3.1169398145    -2.8554559969
   89      O      -2.6053911273    -4.4080075102    -3.0725338923
   90      C      -3.9951577651    -4.0544171402    -3.2571511790
   91      H      -4.3609058853    -4.6424132972    -4.1077879005
   92      H      -4.1281957605    -2.9948200186    -3.5075984422
   93      H      -4.5030825546    -4.2150104657    -2.2980228289
   94      O      -2.7697711864    -4.2774179317    -0.8058006574
   95      C      -2.1069349932    -4.3977317254    -1.8171654641
   96      C      -0.5572746122    -4.6062234905    -1.7808903014
   97      H      -0.1569717785    -4.6380418022    -2.8016244667
   98      H      -0.4609242919    -5.6327910483    -1.4048521850
   99      C       0.1262438596    -3.5956553777    -0.7215529669
  100      H       0.1231272048    -2.6451525536    -1.2672219764
  101      H      -0.5345892464    -3.5742181135     0.1542632522
  102      C       1.5695250847    -4.0011334356    -0.4813491999
  103      H       1.5207688225    -5.0430672338    -0.1404815026
  104      H       2.1156517925    -4.1253772956    -1.4239430055
  105      C       2.2920658432    -3.1495784029     0.5994846813
  106      C       1.7909614293    -3.3718064798     2.0274846981
  107      C       2.3392663016    -4.4577549775     2.7779249871
  108      H       3.1813551722    -5.0479661756     2.4270531078
  109      C       1.8686688430    -4.6407291572     4.0978812294
  110      H       2.3679842999    -5.4306592593     4.6522191303
  111      C       0.9459724458    -3.7669128444     4.7383071893
  112      H       0.6812447548    -3.9370116091     5.7777462976
  113      C       0.4586638563    -2.6972554777     4.0037430625
  114      H      -0.2599632487    -2.0174814888     4.4502533177
  115      C       0.8420192554    -2.5697499661     2.6738848059
  116      H       0.2947519061    -1.8307845613     2.0961542641
  117      C       4.0153106472     1.8640527599     1.9712389993
  118      C       5.4591273869     0.4321397173     3.3204355234
  119      C       9.1763530910     1.2223573252     0.7696671691
  120      C       3.9512932317     0.6673172198    -2.9375261018
  121      C       8.8280046176    -1.7191444166    -1.2140885728
  122      C       4.1810339262     0.7064445549     2.7070433473
  123      C       6.5697830839    -0.2607906436    -3.6664223138
  124      C       7.4609163627     2.7536415692     1.5747493981
  125      C       5.9838050633    -3.0283035884     1.3326803917
  126      C       4.2019758073    -0.6975517403    -3.0226199797
  127      C       3.7825701843    -2.7978247107     0.4296225340
  128      C       5.9837172951    -3.4166093847    -0.0251784378
  129      C       5.6857772626    -2.3106013031    -2.5818191753
  130      C       7.8214165643    -0.5663177989    -3.1362168933
  131      C       4.5235725646    -1.5137470644     2.6132539293
  132      C       9.1524961697     0.7135617215    -1.4993114295
  133      C       2.6860607483    -1.7608720095     0.2220239975
  134      C       2.7597176810    -1.1346305221    -1.1257587207
  135      C       9.3585737627    -0.4608179300    -0.7818168582
  136      C       6.0131989626     3.1313937323    -1.5980961123
  137      C       8.0613003967     2.7740640824    -0.7813923490
  138      C       7.2760886965     3.2856724418     0.2529680681
  139      C       6.2924836780     2.4818834982     2.3019279266
  140      C       2.5761481873     0.2235648395    -0.9409788492
  141      C       4.7374566946    -2.5575530099     1.6645412610
  142      C       6.5156086411     1.3159104511     3.0682458137
  143      C       5.4932346227    -1.1410217013    -3.3319904136
  144      C       5.6979960126    -0.9007492574     3.1849262597
  145      C       7.1276538556    -3.1956155158    -0.8889034261
  146      C       3.7064517031     2.3982938914    -1.4810033975
  147      C       8.4488328380     1.7334627344     1.8100644693
  148      C       4.6959468700    -3.1849030467    -0.6115942503
  149      C       4.8745359076     3.3093002067     0.5085535343
  150      C       6.9779499779    -2.6332221727    -2.1585173346
  151      C       7.1229869503    -2.4366851824     1.8805629429
  152      C       7.4187586131     1.7374243509    -2.8240379677
  153      C       6.3138142076     1.1695481473    -3.4610838672
  154      C       8.2338296096    -2.2406038792     1.1284361525
  155      C       3.1948813797     1.1428427251    -1.8111733133
  156      C       3.6197565693    -1.5816482309    -2.1172829407
  157      C       4.8639731424     2.6408924437    -2.2771215168
  158      C       2.7112330981    -0.5846539182     1.1705846727
  159      C       8.0405893494    -0.4940485783     2.6271798873
  160      C       4.5223583785    -2.6040469116    -1.8619558724
  161      C       8.2600411840    -2.6222296619    -0.2850618897
  162      C       3.7315217531     2.7215066857    -0.1489861370
  163      C       9.2657650390    -0.1816164139     0.5744615256
  164      C       5.0311629840     2.8210037489     1.7937148192
  165      C       9.0350413931     1.7427325346    -0.5690701634
  166      C       7.0084921365    -1.4067459511     2.8393987566
  167      C       8.7978683353    -1.0081694026     1.5390193680
  168      C       3.6024620913    -0.5443107822     2.3021288888
  169      C       2.5235381044     0.5864777775     0.3965787678
  170      C       7.3398137839     2.7601518514    -1.9143263795
  171      C       7.8584324688     0.8697866694     2.7888254508
  172      C       8.0629527963    -1.7070290823    -2.3613627028
  173      C       5.0095739247     1.5892490778    -3.1623207278
  174      C       8.3163271496     0.6383251509    -2.6497460553
  175      C       3.2427346517     1.7946503291     0.7802471295
  176      C       6.0003235243     3.5566985487    -0.2456250271
 ----------------------------------------------------------------
 Molecular Point Group                 C1    NOp =  1
 Largest Abelian Subgroup              C1    NOp =  1
 Nuclear Repulsion Energy = 35243.2683223562 hartrees
 There are      462 alpha and      462 beta electrons
 Requested basis set is 6-31G(d,p)
 There are 676 shells and 2360 basis functions

 Total QAlloc Memory Limit  20000 MB
 Mega-Array Size      4888 MB
 MEM_STATIC part      5000 MB
 A cutoff of  1.0D-08 yielded  39100 shell pairs
 There are    541504 function pairs
 
 -------------------------------------------------------
 OpenMP Integral Computing Module                       
 Release: version 1.0, May 2013, Q-Chem Inc. Pittsburgh 
 -------------------------------------------------------
 Integral Job Info:
 Integral job number is                      11
 Integral operator is                         1
 short-range coefficients                     0
 long-range coefficients              100000000
 Omega coefficients                           0
 if combine SR and LR in K                    0
 Integral screening is                        0
 Integral computing path is                   2
 max size of driver memory is            800000
 size of driver memory is                593474
 size of scratch memory is              2260544
 max col of scratch BK array               1296
 max len of scratch array in speh3          155
 max len of scratch index in speh4           18
 max int batch size is                      520
 min int batch size is                       52
 fixed nKL is                                52
 max L of basis functions is                  2
 order of int derivative is                   0
 number of shells is                        676
 number of basis is                        2360
 number of cartesian basis is              2360
 number of contracted shell pairs         39100
 number of primitive shell pairs         117060
 maxK2 (contraction) of shell pair           36
 max number of K2 of shell pair               1
 max number of CS2 of shell pair           7336
 max number of PS2 of shell pair          35064
 mem total for path MDJ                 1532120
 -------------------------------------------------------
 Smallest overlap matrix eigenvalue = 2.43E-04

 Scale SEOQF with 1.000000e-02/1.000000e-02/1.000000e-02

 Standard Electronic Orientation quadrupole field applied
 Nucleus-field energy     =     0.0000001170 hartrees
 Guess from superposition of atomic densities
 Warning:  Energy on first SCF cycle will be non-variational
 A restricted hybrid HF-DFT SCF calculation will be
 performed using Pulay DIIS extrapolation
 Exchange:     0.2000 Hartree-Fock + 0.0800 Slater + 0.7200 B88
 Correlation:  0.1900 VWN1RPA + 0.8100 LYP
 Using SG-1 standard quadrature grid
 SCF converges when DIIS error is below 1.0E-05
 using 16 threads for integral computing 
 -------------------------------------------------------
 OpenMP BLAS3 based DFT computing Module                
 Release: version 1.0, May 2013, Q-Chem Inc. Pittsburgh 
 -------------------------------------------------------
 ---------------------------------------
  Cycle       Energy         DIIS Error
 ---------------------------------------
    1   -5858.9126160694      1.84E-02
    2   -5803.1300819608      1.29E-03
    3   -5802.4859675183      1.73E-03
    4   -5804.0408370038      5.84E-04
    5   -5804.2155382995      2.78E-04
    6   -5804.2644141793      1.21E-04
    7   -5804.2744019063      4.26E-05
    8   -5804.2753549077      2.47E-05
    9   -5804.2757772362      6.86E-06 Convergence criterion met
 ---------------------------------------
 SCF time:  CPU 7383.18 s  wall 851.77 s
 SCF   energy in the final basis set = -5804.2757772362
 Total energy in the final basis set = -5804.2757772362
 
 --------------------------------------------------------------
 
                    Orbital Energies (a.u.)
 --------------------------------------------------------------
 
 Alpha MOs
 -- Occupied --
-19.204 -19.200 -19.141 -19.125 -10.324 -10.309 -10.251 -10.246
-10.242 -10.240 -10.237 -10.237 -10.236 -10.233 -10.230 -10.230
-10.228 -10.228 -10.228 -10.227 -10.226 -10.226 -10.225 -10.225
-10.223 -10.222 -10.222 -10.221 -10.220 -10.220 -10.220 -10.220
-10.220 -10.220 -10.219 -10.219 -10.219 -10.219 -10.219 -10.219
-10.219 -10.219 -10.219 -10.218 -10.218 -10.218 -10.218 -10.218
-10.218 -10.218 -10.217 -10.217 -10.217 -10.217 -10.217 -10.217
-10.217 -10.217 -10.217 -10.217 -10.217 -10.216 -10.216 -10.216
-10.216 -10.216 -10.216 -10.216 -10.215 -10.215 -10.215 -10.215
-10.215 -10.215 -10.215 -10.215 -10.215 -10.214 -10.214 -10.214
-10.214 -10.214 -10.214 -10.214 -10.214 -10.214 -10.214 -10.214
-10.214 -10.213 -10.213 -10.213 -10.213 -10.213 -10.213 -10.213
-10.213 -10.212 -10.212 -10.212 -10.212 -10.212 -10.212 -10.212
-10.212 -10.212 -10.212 -10.211 -10.211 -10.211 -10.211 -10.211
-10.211 -10.211 -10.211 -10.211 -10.211 -10.211 -10.210 -10.210
-10.209 -10.209 -10.209 -10.208 -10.208 -10.208 -10.207 -10.207
-10.206 -10.205 -10.205 -10.205 -10.205 -10.205 -10.203 -10.201
-10.200 -10.200 -10.199 -10.198 -10.198 -10.197 -10.195 -10.194
-10.194 -10.193 -10.190 -10.189  -1.120  -1.102  -1.018  -1.017
 -0.989  -0.981  -0.970  -0.968  -0.965  -0.964  -0.961  -0.958
 -0.941  -0.932  -0.931  -0.930  -0.928  -0.924  -0.923  -0.921
 -0.921  -0.920  -0.902  -0.894  -0.893  -0.886  -0.886  -0.882
 -0.881  -0.871  -0.859  -0.850  -0.847  -0.845  -0.841  -0.841
 -0.839  -0.836  -0.823  -0.818  -0.810  -0.801  -0.800  -0.799
 -0.798  -0.796  -0.794  -0.793  -0.792  -0.791  -0.791  -0.783
 -0.776  -0.774  -0.772  -0.771  -0.769  -0.768  -0.765  -0.759
 -0.754  -0.748  -0.746  -0.743  -0.737  -0.730  -0.721  -0.718
 -0.717  -0.716  -0.714  -0.713  -0.712  -0.710  -0.710  -0.709
 -0.708  -0.708  -0.707  -0.706  -0.704  -0.702  -0.678  -0.673
 -0.664  -0.660  -0.658  -0.656  -0.648  -0.645  -0.633  -0.630
 -0.628  -0.627  -0.626  -0.624  -0.621  -0.621  -0.621  -0.618
 -0.617  -0.617  -0.616  -0.613  -0.612  -0.612  -0.610  -0.608
 -0.608  -0.607  -0.602  -0.602  -0.582  -0.567  -0.566  -0.563
 -0.563  -0.562  -0.560  -0.559  -0.558  -0.556  -0.554  -0.552
 -0.538  -0.534  -0.533  -0.531  -0.530  -0.529  -0.528  -0.525
 -0.525  -0.523  -0.523  -0.521  -0.517  -0.517  -0.516  -0.513
 -0.511  -0.507  -0.504  -0.501  -0.497  -0.494  -0.491  -0.488
 -0.487  -0.484  -0.483  -0.483  -0.482  -0.481  -0.479  -0.478
 -0.477  -0.474  -0.474  -0.472  -0.470  -0.469  -0.468  -0.467
 -0.466  -0.466  -0.464  -0.464  -0.462  -0.461  -0.459  -0.459
 -0.457  -0.454  -0.454  -0.451  -0.449  -0.448  -0.447  -0.445
 -0.443  -0.443  -0.441  -0.439  -0.438  -0.436  -0.434  -0.433
 -0.431  -0.430  -0.430  -0.428  -0.426  -0.426  -0.425  -0.424
 -0.423  -0.423  -0.423  -0.421  -0.421  -0.421  -0.420  -0.419
 -0.417  -0.417  -0.416  -0.416  -0.415  -0.414  -0.414  -0.414
 -0.413  -0.411  -0.409  -0.406  -0.405  -0.401  -0.398  -0.396
 -0.396  -0.394  -0.392  -0.390  -0.389  -0.388  -0.386  -0.385
 -0.382  -0.375  -0.374  -0.372  -0.370  -0.369  -0.368  -0.367
 -0.367  -0.366  -0.364  -0.364  -0.362  -0.360  -0.359  -0.358
 -0.358  -0.358  -0.356  -0.355  -0.354  -0.353  -0.353  -0.351
 -0.351  -0.348  -0.347  -0.347  -0.346  -0.345  -0.343  -0.343
 -0.342  -0.341  -0.341  -0.340  -0.338  -0.338  -0.337  -0.335
 -0.334  -0.333  -0.332  -0.330  -0.329  -0.328  -0.327  -0.327
 -0.315  -0.308  -0.304  -0.301  -0.289  -0.284  -0.277  -0.274
 -0.273  -0.271  -0.269  -0.269  -0.269  -0.267  -0.264  -0.263
 -0.262  -0.262  -0.261  -0.260  -0.259  -0.256  -0.255  -0.252
 -0.250  -0.249  -0.243  -0.243  -0.224  -0.219  -0.217  -0.213
 -0.210  -0.209  -0.207  -0.207  -0.204  -0.194
 -- Virtual --
 -0.123  -0.122  -0.120  -0.118  -0.110  -0.108  -0.081  -0.076
 -0.074  -0.071  -0.057  -0.056  -0.053  -0.049  -0.027  -0.023
 -0.022  -0.020  -0.018  -0.017  -0.017  -0.016  -0.015  -0.015
 -0.013  -0.012  -0.010  -0.009  -0.008  -0.004   0.004   0.005
  0.006   0.022   0.034   0.036   0.041   0.041   0.045   0.046
  0.047   0.049   0.052   0.054   0.062   0.063   0.064   0.067
  0.070   0.071   0.073   0.083   0.086   0.086   0.087   0.090
  0.092   0.095   0.096   0.097   0.099   0.101   0.102   0.102
  0.107   0.110   0.113   0.115   0.116   0.120   0.121   0.122
  0.123   0.125   0.128   0.128   0.129   0.132   0.134   0.137
  0.140   0.145   0.145   0.146   0.147   0.149   0.151   0.158
  0.158   0.159   0.160   0.163   0.164   0.165   0.167   0.170
  0.173   0.175   0.175   0.177   0.178   0.179   0.180   0.182
  0.183   0.185   0.185   0.185   0.188   0.188   0.189   0.191
  0.193   0.196   0.197   0.200   0.201   0.203   0.204   0.205
  0.207   0.209   0.212   0.213   0.214   0.215   0.219   0.220
  0.222   0.223   0.224   0.224   0.227   0.228   0.228   0.230
  0.231   0.232   0.237   0.237   0.238   0.240   0.243   0.244
  0.245   0.246   0.246   0.248   0.251   0.256   0.259   0.263
  0.267   0.269   0.273   0.273   0.276   0.277   0.278   0.280
  0.285   0.287   0.293   0.293   0.298   0.301   0.302   0.307
  0.310   0.310   0.312   0.313   0.316   0.318   0.319   0.321
  0.322   0.326   0.326   0.328   0.328   0.330   0.331   0.333
  0.334   0.340   0.341   0.344   0.345   0.346   0.347   0.348
  0.353   0.357   0.363   0.372   0.375   0.380   0.388   0.393
  0.395   0.396   0.399   0.400   0.402   0.405   0.408   0.409
  0.410   0.414   0.416   0.418   0.419   0.422   0.423   0.424
  0.427   0.429   0.431   0.434   0.436   0.439   0.444   0.447
  0.449   0.453   0.454   0.455   0.456   0.458   0.460   0.461
  0.463   0.465   0.467   0.467   0.472   0.472   0.474   0.474
  0.474   0.475   0.478   0.480   0.480   0.481   0.483   0.484
  0.485   0.485   0.487   0.488   0.489   0.490   0.490   0.492
  0.493   0.494   0.496   0.496   0.499   0.500   0.501   0.502
  0.504   0.505   0.505   0.508   0.509   0.509   0.510   0.510
  0.511   0.512   0.513   0.514   0.515   0.516   0.517   0.518
  0.518   0.519   0.520   0.521   0.522   0.523   0.523   0.524
  0.525   0.525   0.526   0.528   0.529   0.530   0.531   0.532
  0.532   0.533   0.534   0.534   0.536   0.537   0.538   0.539
  0.540   0.540   0.541   0.541   0.542   0.543   0.544   0.544
  0.545   0.546   0.546   0.547   0.548   0.549   0.549   0.550
  0.551   0.552   0.552   0.554   0.555   0.555   0.555   0.556
  0.557   0.558   0.560   0.561   0.562   0.562   0.564   0.564
  0.565   0.566   0.567   0.568   0.569   0.570   0.571   0.571
  0.573   0.574   0.575   0.576   0.576   0.578   0.578   0.579
  0.581   0.582   0.582   0.583   0.583   0.585   0.586   0.587
  0.588   0.588   0.589   0.589   0.590   0.591   0.592   0.593
  0.594   0.595   0.596   0.596   0.597   0.597   0.598   0.599
  0.600   0.601   0.602   0.603   0.605   0.607   0.608   0.608
  0.608   0.610   0.612   0.613   0.613   0.614   0.615   0.618
  0.619   0.620   0.621   0.622   0.623   0.624   0.626   0.627
  0.628   0.628   0.629   0.630   0.631   0.632   0.633   0.633
  0.634   0.635   0.636   0.637   0.639   0.640   0.641   0.642
  0.642   0.643   0.645   0.647   0.648   0.648   0.649   0.651
  0.652   0.652   0.654   0.655   0.656   0.656   0.657   0.658
  0.659   0.661   0.661   0.662   0.662   0.663   0.664   0.665
  0.666   0.666   0.667   0.668   0.668   0.669   0.670   0.671
  0.671   0.672   0.674   0.674   0.676   0.677   0.678   0.679
  0.680   0.681   0.682   0.682   0.683   0.687   0.687   0.688
  0.689   0.690   0.691   0.691   0.694   0.695   0.696   0.697
  0.697   0.699   0.699   0.701   0.703   0.705   0.705   0.706
  0.707   0.708   0.710   0.711   0.712   0.714   0.714   0.716
  0.717   0.719   0.719   0.720   0.721   0.723   0.723   0.724
  0.725   0.726   0.728   0.729   0.730   0.731   0.732   0.733
  0.734   0.736   0.738   0.739   0.740   0.741   0.742   0.743
  0.744   0.746   0.748   0.749   0.750   0.753   0.756   0.757
  0.758   0.758   0.760   0.762   0.762   0.765   0.766   0.767
  0.769   0.769   0.771   0.773   0.773   0.774   0.775   0.777
  0.779   0.780   0.780   0.781   0.783   0.783   0.784   0.785
  0.789   0.790   0.791   0.791   0.793   0.794   0.796   0.796
  0.797   0.798   0.799   0.800   0.802   0.802   0.802   0.803
  0.805   0.806   0.807   0.808   0.809   0.810   0.811   0.812
  0.813   0.813   0.814   0.815   0.815   0.816   0.817   0.818
  0.818   0.819   0.820   0.821   0.821   0.822   0.824   0.824
  0.825   0.826   0.828   0.829   0.830   0.832   0.835   0.836
  0.837   0.838   0.841   0.842   0.844   0.846   0.848   0.853
  0.854   0.855   0.858   0.859   0.863   0.866   0.869   0.871
  0.877   0.882   0.885   0.887   0.889   0.890   0.892   0.893
  0.897   0.901   0.905   0.906   0.910   0.913   0.915   0.918
  0.919   0.920   0.922   0.924   0.925   0.926   0.927   0.928
  0.928   0.930   0.931   0.932   0.935   0.937   0.939   0.941
  0.942   0.944   0.946   0.948   0.950   0.951   0.952   0.956
  0.962   0.963   0.967   0.972   0.973   0.974   0.976   0.977
  0.980   0.986   0.987   0.989   0.990   0.990   0.994   0.997
  0.999   1.000   1.001   1.003   1.004   1.005   1.007   1.008
  1.010   1.013   1.015   1.015   1.017   1.018   1.020   1.021
  1.022   1.024   1.026   1.027   1.029   1.030   1.033   1.036
  1.037   1.038   1.038   1.041   1.043   1.044   1.047   1.047
  1.050   1.050   1.052   1.053   1.054   1.055   1.057   1.060
  1.061   1.063   1.064   1.067   1.070   1.070   1.071   1.073
  1.073   1.074   1.078   1.080   1.081   1.082   1.084   1.085
  1.086   1.089   1.090   1.091   1.093   1.094   1.095   1.097
  1.100   1.104   1.104   1.106   1.107   1.108   1.110   1.112
  1.114   1.116   1.116   1.123   1.124   1.126   1.127   1.130
  1.130   1.134   1.136   1.139   1.140   1.144   1.146   1.149
  1.151   1.154   1.156   1.159   1.159   1.160   1.161   1.162
  1.164   1.165   1.167   1.169   1.171   1.172   1.174   1.174
  1.175   1.178   1.180   1.180   1.182   1.185   1.185   1.188
  1.190   1.191   1.194   1.195   1.197   1.198   1.201   1.201
  1.204   1.206   1.208   1.213   1.214   1.215   1.218   1.220
  1.226   1.228   1.231   1.236   1.238   1.241   1.244   1.246
  1.247   1.253   1.254   1.258   1.259   1.260   1.262   1.265
  1.266   1.268   1.268   1.270   1.273   1.278   1.278   1.278
  1.280   1.282   1.284   1.286   1.289   1.289   1.294   1.295
  1.296   1.298   1.301   1.303   1.305   1.308   1.310   1.314
  1.316   1.319   1.320   1.323   1.326   1.329   1.331   1.332
  1.333   1.336   1.339   1.342   1.345   1.346   1.348   1.351
  1.354   1.357   1.359   1.361   1.363   1.364   1.368   1.368
  1.369   1.371   1.373   1.375   1.379   1.381   1.383   1.384
  1.389   1.391   1.396   1.396   1.402   1.404   1.406   1.407
  1.411   1.413   1.419   1.420   1.425   1.426   1.429   1.430
  1.436   1.439   1.441   1.443   1.446   1.448   1.452   1.454
  1.454   1.458   1.459   1.460   1.462   1.465   1.466   1.467
  1.470   1.471   1.472   1.474   1.475   1.478   1.483   1.485
  1.487   1.488   1.491   1.493   1.494   1.495   1.499   1.502
  1.504   1.507   1.508   1.514   1.516   1.519   1.523   1.524
  1.526   1.528   1.531   1.532   1.534   1.538   1.540   1.542
  1.544   1.546   1.548   1.553   1.555   1.555   1.557   1.561
  1.562   1.564   1.565   1.566   1.570   1.572   1.573   1.576
  1.578   1.580   1.582   1.585   1.587   1.590   1.592   1.595
  1.598   1.601   1.602   1.607   1.609   1.611   1.617   1.624
  1.626   1.628   1.632   1.635   1.638   1.643   1.644   1.649
  1.650   1.652   1.657   1.661   1.662   1.667   1.669   1.673
  1.677   1.679   1.682   1.685   1.689   1.691   1.694   1.698
  1.700   1.702   1.702   1.706   1.707   1.710   1.714   1.715
  1.718   1.720   1.724   1.726   1.726   1.728   1.729   1.730
  1.732   1.735   1.736   1.737   1.738   1.740   1.744   1.745
  1.746   1.748   1.750   1.750   1.752   1.755   1.756   1.756
  1.758   1.759   1.760   1.762   1.762   1.765   1.766   1.767
  1.769   1.770   1.771   1.773   1.774   1.775   1.778   1.778
  1.780   1.782   1.783   1.784   1.785   1.787   1.787   1.790
  1.791   1.792   1.793   1.794   1.796   1.796   1.797   1.798
  1.800   1.801   1.803   1.804   1.805   1.807   1.808   1.810
  1.811   1.813   1.813   1.815   1.818   1.820   1.821   1.824
  1.826   1.828   1.829   1.833   1.835   1.839   1.841   1.845
  1.847   1.848   1.849   1.851   1.854   1.856   1.858   1.859
  1.861   1.863   1.864   1.866   1.867   1.870   1.871   1.873
  1.874   1.876   1.877   1.880   1.881   1.883   1.884   1.885
  1.889   1.890   1.890   1.896   1.901   1.901   1.904   1.906
  1.907   1.910   1.913   1.917   1.920   1.923   1.925   1.926
  1.927   1.929   1.929   1.931   1.933   1.935   1.936   1.940
  1.941   1.943   1.944   1.945   1.947   1.950   1.952   1.957
  1.957   1.959   1.960   1.962   1.963   1.967   1.971   1.973
  1.976   1.976   1.977   1.979   1.981   1.982   1.983   1.985
  1.987   1.987   1.991   1.991   1.992   1.992   1.993   1.995
  1.997   1.998   1.999   2.001   2.002   2.003   2.005   2.007
  2.007   2.008   2.009   2.011   2.012   2.014   2.015   2.018
  2.019   2.020   2.021   2.022   2.025   2.025   2.026   2.028
  2.030   2.031   2.032   2.032   2.033   2.034   2.035   2.037
  2.039   2.041   2.041   2.042   2.044   2.044   2.045   2.047
  2.050   2.050   2.051   2.052   2.054   2.055   2.057   2.059
  2.060   2.062   2.062   2.063   2.065   2.066   2.068   2.071
  2.071   2.072   2.073   2.074   2.076   2.077   2.078   2.079
  2.080   2.082   2.084   2.087   2.088   2.090   2.093   2.095
  2.096   2.097   2.099   2.099   2.100   2.102   2.105   2.106
  2.110   2.111   2.113   2.115   2.116   2.121   2.124   2.126
  2.127   2.129   2.132   2.136   2.139   2.141   2.144   2.146
  2.149   2.150   2.154   2.156   2.158   2.162   2.163   2.169
  2.175   2.184   2.188   2.194   2.202   2.202   2.205   2.209
  2.212   2.215   2.218   2.221   2.222   2.222   2.227   2.232
  2.232   2.234   2.235   2.237   2.242   2.243   2.246   2.249
  2.250   2.252   2.253   2.255   2.257   2.258   2.263   2.268
  2.268   2.271   2.272   2.272   2.274   2.276   2.281   2.284
  2.285   2.287   2.289   2.291   2.293   2.294   2.299   2.300
  2.302   2.306   2.307   2.308   2.312   2.313   2.316   2.317
  2.320   2.322   2.327   2.331   2.331   2.333   2.336   2.337
  2.339   2.344   2.347   2.348   2.350   2.351   2.352   2.355
  2.357   2.359   2.361   2.362   2.362   2.363   2.367   2.369
  2.369   2.374   2.374   2.375   2.376   2.377   2.378   2.381
  2.383   2.384   2.387   2.389   2.390   2.392   2.394   2.395
  2.395   2.398   2.400   2.401   2.404   2.406   2.407   2.408
  2.411   2.414   2.416   2.419   2.420   2.423   2.424   2.427
  2.429   2.431   2.434   2.438   2.440   2.442   2.446   2.448
  2.451   2.453   2.454   2.456   2.459   2.460   2.462   2.463
  2.464   2.466   2.469   2.471   2.472   2.474   2.476   2.478
  2.478   2.481   2.484   2.487   2.488   2.491   2.492   2.493
  2.495   2.498   2.498   2.501   2.503   2.506   2.508   2.509
  2.511   2.514   2.517   2.520   2.521   2.523   2.525   2.525
  2.526   2.528   2.530   2.533   2.536   2.539   2.541   2.543
  2.546   2.548   2.550   2.554   2.554   2.557   2.557   2.563
  2.567   2.570   2.576   2.578   2.582   2.583   2.585   2.591
  2.592   2.594   2.596   2.598   2.599   2.603   2.605   2.606
  2.607   2.610   2.612   2.614   2.614   2.615   2.617   2.619
  2.622   2.624   2.625   2.625   2.628   2.628   2.633   2.635
  2.638   2.640   2.640   2.642   2.645   2.647   2.647   2.650
  2.653   2.653   2.657   2.657   2.658   2.660   2.661   2.663
  2.664   2.665   2.666   2.669   2.671   2.673   2.675   2.676
  2.678   2.679   2.683   2.684   2.686   2.688   2.690   2.692
  2.694   2.694   2.697   2.700   2.701   2.703   2.705   2.710
  2.712   2.714   2.718   2.719   2.722   2.724   2.726   2.729
  2.730   2.733   2.734   2.737   2.737   2.740   2.742   2.745
  2.747   2.748   2.752   2.753   2.756   2.758   2.759   2.761
  2.763   2.766   2.767   2.769   2.772   2.775   2.779   2.780
  2.783   2.784   2.787   2.790   2.791   2.793   2.795   2.796
  2.801   2.804   2.809   2.811   2.812   2.814   2.819   2.820
  2.824   2.826   2.830   2.836   2.839   2.842   2.845   2.847
  2.850   2.851   2.853   2.856   2.859   2.860   2.862   2.865
  2.867   2.870   2.872   2.874   2.875   2.876   2.880   2.882
  2.882   2.884   2.886   2.887   2.889   2.891   2.894   2.895
  2.896   2.897   2.900   2.901   2.903   2.906   2.907   2.911
  2.913   2.914   2.915   2.917   2.917   2.921   2.922   2.925
  2.926   2.927   2.930   2.931   2.932   2.934   2.935   2.938
  2.939   2.943   2.945   2.946   2.950   2.953   2.957   2.958
  2.964   2.965   2.966   2.968   2.971   2.978   2.981   2.982
  2.983   2.987   2.989   2.991   2.997   2.998   2.999   3.005
  3.005   3.011   3.014   3.015   3.017   3.019   3.022   3.023
  3.025   3.029   3.032   3.033   3.037   3.038   3.039   3.041
  3.043   3.049   3.054   3.057   3.063   3.064   3.065   3.069
  3.073   3.075   3.080   3.084   3.086   3.091   3.092   3.095
  3.106   3.112   3.120   3.128   3.140   3.143   3.149   3.159
  3.162   3.165   3.170   3.171   3.175   3.182   3.184   3.186
  3.193   3.207   3.217   3.218   3.232   3.239   3.243   3.246
  3.252   3.252   3.260   3.261   3.267   3.270   3.283   3.285
  3.288   3.293   3.302   3.313   3.316   3.322   3.323   3.328
  3.330   3.338   3.343   3.350   3.352   3.367   3.387   3.390
  3.391   3.396   3.403   3.422   3.428   3.437   3.442   3.443
  3.451   3.456   3.467   3.469   3.472   3.472   3.487   3.504
  3.510   3.513   3.518   3.521   3.531   3.533   3.541   3.557
  3.557   3.560   3.566   3.574   3.583   3.584   3.591   3.603
  3.608   3.621   3.680   3.708   3.838   3.856   4.000   4.043
  4.076   4.078   4.078   4.084   4.085   4.090   4.095   4.097
  4.100   4.105   4.107   4.108   4.115   4.122   4.123   4.128
  4.131   4.136   4.138   4.144   4.146   4.150   4.152   4.154
  4.159   4.163   4.168   4.171   4.174   4.177   4.180   4.188
  4.193   4.196   4.208   4.212   4.217   4.232   4.239   4.241
  4.244   4.245   4.249   4.253   4.254   4.257   4.264   4.272
  4.275   4.278   4.284   4.287   4.290   4.293   4.300   4.309
  4.311   4.322   4.326   4.355   4.370   4.380   4.387   4.390
  4.395   4.397   4.401   4.402   4.410   4.412   4.414   4.418
  4.423   4.428   4.429   4.434   4.436   4.454   4.466   4.479
  4.488   4.496   4.505   4.516   4.532   4.540   4.549   4.557
  4.561   4.566   4.602   4.619   4.625   4.628   4.630   4.633
  4.640   4.650   4.673   4.681   4.691   4.698   4.700   4.702
  4.705   4.706   4.709   4.711   4.738   4.770   4.796   4.831
  4.845   4.853   4.856   4.865   4.878   4.886   4.892   4.895
  4.900   4.902   4.952   4.967   4.969   4.971   4.977   4.982
  4.989   4.992   4.999   5.013   5.153   5.164   5.173   5.185
  5.193   5.196   5.210   5.218   5.307   5.320   5.330   5.342
  5.347   5.360
 --------------------------------------------------------------
 
          Ground-State Mulliken Net Atomic Charges

     Atom                 Charge (a.u.)
  ----------------------------------------
      1 O                    -0.424147
      2 C                    -0.096642
      3 H                     0.119119
      4 H                     0.133666
      5 H                     0.129030
      6 O                    -0.479972
      7 C                     0.588231
      8 C                    -0.261728
      9 H                     0.146615
     10 H                     0.125268
     11 C                    -0.186652
     12 H                     0.114688
     13 H                     0.115386
     14 C                    -0.179504
     15 H                     0.115909
     16 H                     0.109831
     17 C                     0.005970
     18 C                     0.100777
     19 C                    -0.104890
     20 H                     0.082950
     21 C                    -0.089123
     22 H                     0.088106
     23 C                    -0.079480
     24 H                     0.091036
     25 C                    -0.102974
     26 H                     0.087991
     27 C                    -0.097198
     28 H                     0.085578
     29 C                     0.000656
     30 C                    -0.006464
     31 C                     0.033543
     32 C                     0.013504
     33 C                     0.005945
     34 C                    -0.006689
     35 C                     0.025075
     36 C                    -0.020872
     37 C                    -0.000340
     38 C                     0.008380
     39 C                    -0.108883
     40 C                     0.040383
     41 C                    -0.037882
     42 C                     0.031321
     43 C                     0.010419
     44 C                     0.012425
     45 C                    -0.057578
     46 C                     0.024487
     47 C                    -0.017404
     48 C                     0.001963
     49 C                    -0.031630
     50 C                     0.019509
     51 C                     0.032418
     52 C                    -0.013902
     53 C                     0.019503
     54 C                     0.014787
     55 C                    -0.024326
     56 C                     0.013403
     57 C                    -0.016921
     58 C                     0.011399
     59 C                    -0.011434
     60 C                     0.015242
     61 C                    -0.014004
     62 C                    -0.015594
     63 C                     0.006763
     64 C                     0.006163
     65 C                    -0.014907
     66 C                     0.006296
     67 C                    -0.001412
     68 C                    -0.000844
     69 C                    -0.038352
     70 C                     0.022389
     71 C                    -0.025297
     72 C                     0.020416
     73 C                    -0.003959
     74 C                     0.002004
     75 C                     0.006408
     76 C                    -0.017741
     77 C                    -0.042086
     78 C                    -0.011763
     79 C                    -0.001048
     80 C                    -0.025515
     81 C                     0.024934
     82 C                    -0.004267
     83 C                    -0.003057
     84 C                    -0.004566
     85 C                    -0.002473
     86 C                     0.020121
     87 C                    -0.003712
     88 C                     0.019782
     89 O                    -0.459810
     90 C                    -0.115345
     91 H                     0.118720
     92 H                     0.125206
     93 H                     0.161305
     94 O                    -0.480807
     95 C                     0.594271
     96 C                    -0.268063
     97 H                     0.121743
     98 H                     0.131691
     99 C                    -0.183993
    100 H                     0.115301
    101 H                     0.143070
    102 C                    -0.192392
    103 H                     0.108049
    104 H                     0.107792
    105 C                     0.025100
    106 C                     0.078638
    107 C                    -0.106824
    108 H                     0.095150
    109 C                    -0.096287
    110 H                     0.084621
    111 C                    -0.079955
    112 H                     0.093288
    113 C                    -0.088159
    114 H                     0.094654
    115 C                    -0.107305
    116 H                     0.087912
    117 C                    -0.003007
    118 C                    -0.007544
    119 C                    -0.003839
    120 C                    -0.024936
    121 C                    -0.006713
    122 C                    -0.025688
    123 C                    -0.039021
    124 C                    -0.020912
    125 C                     0.027483
    126 C                    -0.013776
    127 C                    -0.103681
    128 C                    -0.012349
    129 C                    -0.003608
    130 C                     0.020090
    131 C                    -0.019496
    132 C                     0.000476
    133 C                    -0.092366
    134 C                     0.060428
    135 C                    -0.000346
    136 C                     0.000280
    137 C                     0.022596
    138 C                    -0.010384
    139 C                     0.024196
    140 C                     0.022638
    141 C                     0.037379
    142 C                     0.009759
    143 C                     0.015975
    144 C                    -0.011719
    145 C                    -0.021313
    146 C                    -0.017884
    147 C                    -0.001402
    148 C                     0.033002
    149 C                    -0.016734
    150 C                    -0.015558
    151 C                     0.008263
    152 C                     0.016476
    153 C                    -0.001075
    154 C                    -0.008755
    155 C                     0.016364
    156 C                     0.008602
    157 C                    -0.003974
    158 C                     0.024867
    159 C                     0.005778
    160 C                    -0.000413
    161 C                    -0.006580
    162 C                     0.006521
    163 C                     0.033376
    164 C                     0.004720
    165 C                    -0.016404
    166 C                    -0.000553
    167 C                    -0.014325
    168 C                     0.042668
    169 C                    -0.029101
    170 C                    -0.002297
    171 C                    -0.019745
    172 C                     0.014294
    173 C                    -0.001756
    174 C                    -0.010142
    175 C                    -0.000717
    176 C                     0.001758
  ----------------------------------------
  Sum of atomic charges =     0.000000

 -----------------------------------------------------------------
                    Cartesian Multipole Moments
 -----------------------------------------------------------------
    Charge (ESU x 10^10)
                 0.0000
    Dipole Moment (Debye)
         X      -2.7287      Y      -1.7653      Z      -1.3623
       Tot       3.5239
    Quadrupole Moments (Debye-Ang)
        XX    -799.8657     XY      -6.9435     YY    -819.0683
        XZ      13.5097     YZ      18.3311     ZZ    -796.6298
    Octopole Moments (Debye-Ang^2)
       XXX    -622.8503    XXY     -63.2712    XYY      94.1340
       YYY    -147.4840    XXZ     -69.3576    XYZ    -136.7127
       YYZ    -145.4968    XZZ    -152.7468    YZZ    -158.7714
       ZZZ      16.3212
    Hexadecapole Moments (Debye-Ang^3)
      XXXX -143367.9587   XXXY    1179.6102   XXYY  -32592.8824
      XYYY    -426.2010   YYYY  -43550.6318   XXXZ     627.7566
      XXYZ     826.5124   XYYZ    1083.3642   YYYZ    1246.6871
      XXZZ  -27677.7112   XYZZ     599.9491   YYZZ  -10114.3558
      XZZZ     277.5367   YZZZ      56.6564   ZZZZ  -20571.7351
 -----------------------------------------------------------------
Archival summary:
1\1\mn366\SP\ProcedureUnspecified\6-31G**\428\afmv_a\SatOct618:55:272018SatOct618:55:272018\0\\#,ProcedureUnspecified,6-31G**,\\0,1\O\C,1,1.21519\O,2,1.35075,1,124.957\C,3,1.44588,2,118.132,1,-9.71124,0\H,4,1.09686,3,106.764,2,147.468,0\H,4,1.09689,3,112.456,2,-94.8925,0\H,4,1.09713,3,107.312,2,21.9585,0\C,2,1.56404,1,122.299,3,177.968,0\H,8,1.09688,2,110.113,1,177.063,0\H,8,1.09751,2,102.686,1,-71.4741,0\C,8,1.61575,2,110.547,1,44.5162,0\H,11,1.096,8,102.403,2,77.0235,0\H,11,1.09737,8,106.304,2,-40.9022,0\C,11,1.51828,8,109.806,2,-168.147,0\H,14,1.09644,11,111.576,8,-51.1852,0\H,14,1.09736,11,105.099,8,56.8098,0\C,14,1.55416,11,113.931,8,176.011,0\C,17,1.49205,14,117.181,11,74.0919,0\C,18,1.48799,17,129.341,14,14.5636,0\C,19,1.38294,18,106.603,17,-153.641,0\C,19,1.38658,18,122.869,17,62.5522,0\C,20,1.38692,19,113.009,18,-6.15764,0\C,21,1.38751,19,120.628,18,3.8727,0\C,23,1.38958,21,123.701,19,4.29548,0\C,21,1.39293,19,121.293,18,145.944,0\C,25,1.39031,21,120.527,19,-1.17267,0\C,23,1.39923,21,106.959,19,144.18,0\C,27,1.39749,23,124.372,21,-147.072,0\C,28,1.39664,27,117.867,23,5.01011,0\C,25,1.3999,21,109.154,19,-145.077,0\C,29,1.40559,28,108.217,27,139.104,0\C,20,1.40895,19,119.998,18,-149.202,0\C,32,1.3953,20,127.007,19,144.879,0\C,33,1.3709,32,116.664,20,-6.96933,0\C,34,1.40052,33,118.833,32,0.462362,0\C,31,1.41465,29,107.562,28,1.39012,0\C,36,1.37902,31,109.222,29,-0.975071,0\C,37,1.39999,36,124.287,31,-143.717,0\C,38,1.39024,37,116.804,36,4.64745,0\C,38,1.39322,37,122.977,36,137.414,0\C,22,1.41629,20,107.797,19,-1.34704,0\C,35,1.42132,34,109.509,33,-144.78,0\C,42,1.38164,35,118.07,34,148.457,0\C,42,1.40685,35,108.661,34,1.46431,0\C,44,1.38369,42,105.992,35,0.485389,0\C,45,1.37746,44,118.646,42,140.325,0\C,46,1.39629,45,121.089,44,-1.9066,0\C,47,1.39578,46,108.695,45,-141.425,0\C,48,1.34323,47,109.067,46,-2.15791,0\C,49,1.37105,48,122.441,47,141.274,0\C,50,1.39614,49,124.097,48,-137.28,0\C,44,1.4015,42,116.072,35,138.829,0\C,51,1.4023,50,121.14,49,2.53054,0\C,53,1.38229,51,117.523,50,-3.9242,0\C,52,1.40281,44,120.982,42,-138.01,0\C,52,1.41298,44,122.578,42,6.28467,0\C,56,1.40029,52,119.956,44,-1.43584,0\C,57,1.36089,56,117.891,52,-135.731,0\C,49,1.41341,48,108.223,47,6.34034,0\C,39,1.4242,38,122.51,37,-6.61316,0\C,60,1.39156,39,117.313,38,6.31308,0\C,61,1.38782,60,108.917,39,136.731,0\C,62,1.35369,61,126.628,60,-147.191,0\C,60,1.39224,39,121.954,38,141.487,0\C,63,1.4162,62,117.545,61,5.99016,0\C,65,1.35577,63,106.939,62,138.176,0\C,66,1.39568,65,120.817,63,-143.279,0\C,67,1.373,66,120.047,65,140.274,0\C,66,1.41183,65,109.737,63,4.33778,0\C,69,1.39402,66,108.312,65,-3.5477,0\C,70,1.38541,69,121.966,66,-142.822,0\C,67,1.41229,66,119.606,65,0.576784,0\C,62,1.4203,61,109.718,60,7.89742,0\C,73,1.36855,62,120.472,61,-147.27,0\C,68,1.42665,67,123.208,66,3.30379,0\C,75,1.37297,68,117.807,67,-136.952,0\C,24,1.43813,23,117.363,21,-7.04801,0\C,17,1.5296,14,114.667,11,-69.2553,0\C,78,1.40058,17,124.725,14,96.3041,0\H,79,1.08598,78,119.051,17,-10.25,0\C,79,1.38987,78,125.165,17,174.57,0\H,81,1.08531,79,121.253,78,-177.866,0\C,81,1.38608,79,118.744,78,6.23761,0\H,83,1.08602,81,122.847,79,179.29,0\C,83,1.42305,81,117.602,79,-2.99675,0\H,85,1.08655,83,120.983,81,-173.239,0\C,85,1.41323,83,123.831,81,-1.81145,0\H,87,1.08654,85,119.298,83,-168.135,0\H,7,2.43563,4,154.653,3,-145.919,0\C,89,1.09682,7,147.305,4,-172.299,0\H,90,1.09744,89,106.191,7,114.059,0\C,90,1.49241,89,111.942,7,-3.21858,0\H,92,1.09691,90,112.203,89,-62.4912,0\H,92,1.09772,90,108.096,89,-177.242,0\C,92,1.51031,90,118.727,89,59.5703,0\O,95,1.20667,92,119.638,90,137.828,0\O,95,1.30492,92,113.241,90,-37.2515,0\C,97,1.41473,95,120.727,92,-175.083,0\H,98,1.09625,97,117.176,95,-61.825,0\H,98,1.09713,97,110.862,95,50.753,0\H,98,1.09745,97,106.269,95,168.93,0\C,90,1.53833,89,112.908,7,-130.216,0\H,102,1.09704,90,108.406,89,-160.734,0\H,102,1.09729,90,110.361,89,80.4206,0\C,102,1.53452,90,111.219,89,-40.7729,0\C,105,1.43339,102,109.859,90,-68.1574,0\C,106,1.38784,105,124.787,102,80.1337,0\H,107,1.08641,106,113.781,105,8.27853,0\C,107,1.40916,106,121.604,105,-175.237,0\H,109,1.08602,107,121.792,106,-177.228,0\C,109,1.40754,107,120.927,106,-9.84795,0\H,111,1.086,109,121.152,107,175.974,0\C,111,1.35723,109,117.265,107,15.9683,0\H,113,1.08661,111,115.917,109,177.259,0\C,113,1.39691,111,119.647,109,-19.7205,0\H,115,1.08631,113,122.887,111,-176.284,0\C,105,1.4701,102,118.437,90,73.4372,0\C,117,1.46769,105,60.9987,102,109.032,0\C,117,1.50079,105,127.912,102,6.91909,0\C,119,1.42254,117,121.173,105,67.7395,0\C,120,1.38556,119,119.563,117,5.80364,0\C,121,1.37007,120,104.765,119,142.938,0\C,122,1.39786,121,113.368,120,4.39172,0\C,123,1.34909,122,118.467,121,-142.893,0\C,124,1.35203,123,122.889,122,-7.7123,0\C,125,1.35488,124,120.224,123,2.52752,0\C,123,1.38738,122,104.074,121,-4.84287,0\C,127,1.37554,123,120.777,122,-143.288,0\C,128,1.37473,127,120.063,123,137.842,0\C,128,1.37995,127,120.156,123,3.38848,0\C,125,1.38808,124,104.772,123,148.284,0\C,131,1.36542,125,111.836,124,0.102374,0\C,131,1.38651,125,115.911,124,-142.373,0\C,133,1.39646,131,124.089,125,139.614,0\C,132,1.39806,131,106.631,125,0.640013,0\C,122,1.40071,121,122.443,120,-149.009,0\C,136,1.39348,122,116.568,121,10.3763,0\C,137,1.37084,136,121.289,122,-5.35251,0\C,138,1.36419,137,119.986,136,-5.92886,0\C,129,1.40205,128,120.001,127,1.29869,0\C,140,1.39352,129,121.379,128,-136.073,0\C,141,1.36531,140,120.774,129,-2.60987,0\C,142,1.36628,141,120.371,140,144.709,0\C,129,1.40248,128,111.216,127,-141.259,0\C,144,1.40211,129,122.133,128,141.442,0\C,145,1.39577,144,123.669,129,-133.804,0\C,146,1.39362,145,116.138,144,0.654488,0\C,147,1.38984,146,119.195,145,135.82,0\C,144,1.40572,129,107.133,128,-2.71613,0\C,126,1.41057,125,119.883,124,135.663,0\C,150,1.37488,126,108.813,125,-143.156,0\C,151,1.39053,150,119.55,126,141.26,0\C,152,1.40174,151,120.49,150,0.772872,0\C,150,1.40225,126,118.813,125,4.20031,0\C,154,1.39176,150,116.749,126,-138.025,0\C,155,1.37782,154,109.197,150,140.716,0\C,156,1.41444,155,122.505,154,-148.598,0\C,157,1.39779,156,120.093,155,5.58635,0\C,158,1.40171,157,109.482,156,135.918,0\C,159,1.38854,158,107.676,157,1.11317,0\C,160,1.36318,159,108.091,158,-1.28681,0\C,160,1.39676,159,121.096,158,-147.467,0\C,147,1.41749,146,122.907,145,-5.17679,0\C,163,1.40138,147,109.68,146,145.427,0\C,141,1.41752,140,110.22,129,149.132,0\C,165,1.40751,141,119.464,140,-142.356,0\C,166,1.41563,165,122.147,141,131.105,0\C,167,1.40371,166,106.487,165,-140.524,0\C,168,1.39341,167,119.131,166,143.324,0\C,169,1.40305,168,119.656,167,-2.10358,0\C,170,1.32854,169,120.688,168,-0.213532,0\C,167,1.40464,166,119.304,165,3.00089,0\C,168,1.4052,167,109.066,166,-3.82319,0\C,173,1.37498,168,109.129,167,4.64343,0\C,158,1.41814,157,119.293,156,-8.15709,0\C,148,1.42757,147,109.478,146,-148.15,0\\\@

 Total job time:  867.85s(wall), 7410.53s(cpu) 
 Sat Oct  6 18:55:27 2018

        *************************************************************
        *                                                           *
        *  Thank you very much for using Q-Chem.  Have a nice day.  *
        *                                                           *
        *************************************************************


