
Running Job 1 of 1 ./9/9.qcin
qchem ./9/9.qcin_146640.0 /tmpu/cab_g/afmv_a/scratch_qchem/qchem146640/ 1
/tmpu/appuserlic/qchem4.4/serial-multicore/exe/qcprog.exe_s ./9/9.qcin_146640.0 /tmpu/cab_g/afmv_a/scratch_qchem/qchem146640/
Check license passed

                  Welcome to Q-Chem
     A Quantum Leap Into The Future Of Chemistry


 Q-Chem 4.4, Q-Chem, Inc., Pleasanton, CA (2016)

 Y. Shao,  Z. Gan,  E. Epifanovsky,  A. T. B. Gilbert,  M. Wormit,  
 J. Kussmann,  A. W. Lange,  A. Behn,  J. Deng,  X. Feng,  D. Ghosh,  
 M. Goldey,  P. R. Horn,  L. D. Jacobson,  I. Kaliman,  F. Rob,  
 R. Z. Khaliullin,  T. Kus,  A. Landau,  J. Liu,  E. I. Proynov,  Y. M. Rhee,  
 R. M. Richard,  M. A. Rohrdanz,  R. P. Steele,  E. J. Sundstrom,  
 H. L. Woodcock III,  P. M. Zimmerman,  D. Zuev,  B. Albrecht,  E. Alguire,  
 B. Austin,  S. A. Baeppler,  G. J. O. Beran,  Y. A. Bernard,  E. Berquist,  
 K. Brandhorst,  K. B. Bravaya,  S. T. Brown,  D. Casanova,  C.-M. Chang,  
 Y. Chen,  S. H. Chien,  K. D. Closser,  M. P. Coons,  D. L. Crittenden,  
 S. Dasgupta,  M. Diedenhofen,  R. A. DiStasio Jr.,  H. Do,  A. D. Dutoi,  
 R. G. Edgar,  P.-T. Fang,  S. Fatehi,  Q. Feng,  L. Fusti-Molnar,  
 A. Ghysels,  A. Golubeva-Zadorozhnaya,  J. Gomes,  A. Gunina,  
 M. W. D. Hanson-Heine,  P. H. P. Harbach,  A. W. Hauser,  J. E. Herr,  
 E. G. Hohenstein,  Z. C. Holden,  K. Hui,  T.-C. Jagau,  H. Ji,  B. Kaduk,  
 K. Khistyaev,  Jaehoon Kim,  Jihan Kim,  R. A. King,  P. Klunzinger,  
 K. Koh,  D. Kosenkov,  T. Kowalczyk,  C. M. Krauter,  A. Kunitsa,  
 K. U. Lao,  A. Laurent,  K. V. Lawler,  J. Lee,  D. Lefrancois,  S. Lehtola,  
 S. V. Levchenko,  C. Y. Lin,  Y.-S. Lin,  F. Liu,  E. Livshits,  
 R. C. Lochan,  A. Luenser,  P. Manohar,  S. F. Manzer,  S.-P. Mao,  Y. Mao,  
 N. Mardirossian,  A. V. Marenich,  L. A. Martinez-Martinez,  S. A. Maurer,  
 N. J. Mayhall,  J.-M. Mewes,  A. F. Morrison,  K. Nanda,  T. S. Nguyen-Beck,  
 C. M. Oana,  R. Olivares-Amaya,  D. P. O'Neill,  J. A. Parkhill,  
 T. M. Perrine,  R. Peverati,  P. A. Pieniazek,  F. Plasser,  A. Prociuk,  
 D. R. Rehn,  E. Rosta,  N. J. Russ,  N. Sergueev,  S. M. Sharada,  
 S. Sharma,  D. W. Small,  A. Sodt,  T. Stauch,  T. Stein,  D. Stuck,  
 Y.-C. Su,  A. J. W. Thom,  T. Tsuchimochi,  L. Vogt,  O. Vydrov,  T. Wang,  
 M. A. Watson,  J. Wenzel,  A. White,  C. F. Williams,  V. Vanovschi,  
 K. Yao,  S. Yeganeh,  S. R. Yost,  Z.-Q. You,  I. Y. Zhang,  X. Zhang,  
 Y. Zhao,  B. R. Brooks,  G. K. L. Chan,  D. M. Chipman,  C. J. Cramer,  
 W. A. Goddard III,  M. S. Gordon,  W. J. Hehre,  A. Klamt,  
 H. F. Schaefer III,  M. W. Schmidt,  C. D. Sherrill,  D. G. Truhlar,  
 A. Warshel,  X. Xu,  A. Aspuru-Guzik,  R. Baer,  A. T. Bell,  N. A. Besley,  
 J.-D. Chai,  A. Dreuw,  B. D. Dunietz,  T. R. Furlani,  S. R. Gwaltney,  
 C.-P. Hsu,  Y. Jung,  J. Kong,  D. S. Lambrecht,  W. Liang,  C. Ochsenfeld,  
 V. A. Rassolov,  L. V. Slipchenko,  J. E. Subotnik,  T. Van Voorhis,  
 J. M. Herbert,  A. I. Krylov,  P. M. W. Gill,  M. Head-Gordon

 Contributors to earlier versions of Q-Chem not listed above: 
 R. D. Adamson,  J. Baker,  E. F. C. Byrd,  A. K. Chakraborty,  C.-L. Cheng,  
 H. Dachsel,  R. J. Doerksen,  G. Hawkins,  A. Heyden,  S. Hirata,  
 G. Kedziora,  F. J. Keil,  C. Kelley,  P. P. Korambath,  W. Kurlancheek,  
 A. M. Lee,  M. S. Lee,  D. Liotard,  I. Lotan,  P. E. Maslen,  N. Nair,  
 D. Neuhauser,  R. Olson,  B. Peters,  J. Ritchie,  N. E. Schultz,  
 N. Shenvi,  A. C. Simmonett,  K. S. Thanthiriwatte,  Q. Wu,  W. Zhang

 Please cite Q-Chem as follows:
 Y. Shao et al., Mol. Phys. 113, 184-215 (2015)
 DOI: 10.1080/00268976.2014.952696

 Q-Chem 4.4.2 for Intel X86 Linux

 Parts of Q-Chem use Armadillo 5.200.1 (Boston Tea Smuggler).
 http://arma.sourceforge.net/

 Q-Chem begins on Sat Oct  6 20:21:29 2018  

Host: 
0

     Scratch files written to /tmpu/cab_g/afmv_a/scratch_qchem/qchem146640//
 Dec716 11556_ 22328  22283 4050   
Processing $rem in /tmpu/appuserlic/qchem4.4/serial-multicore/config/preferences.
 MEM_TOTAL  2000 
FILE_GEOM_ORG=        593

Checking the input file for inconsistencies... 	...done.

--------------------------------------------------------------
User input:
--------------------------------------------------------------
$comment
SP
$end

$rem
MEM_STATIC 5000
MEM_TOTAL 20000
JOBTYPE SP
EXCHANGE B3LYP
BASIS 6-31g(d,p)
$end

$molecule
0 1
O          11.716000    -20.367000    -12.496000
C          11.272000    -19.219000    -13.282000
H          10.177000    -19.154000    -13.310000
H          11.621000    -19.243000    -14.322000
H          11.596000    -18.285000    -12.808000
O          10.053000    -21.683000    -13.276000
C          10.999000    -21.514000    -12.637000
C          11.672000    -22.606000    -11.858000
H          12.700000    -22.646000    -12.239000
H          11.149000    -23.549000    -12.063000
C          11.551000    -22.377000    -10.389000
H          11.653000    -21.323000    -10.105000
H          10.500000    -22.570000    -10.143000
C          12.612000    -23.192000     -9.637000
H          12.472000    -24.243000     -9.919000
H          13.592000    -22.830000     -9.970000
C          12.570000    -22.954000     -8.073000
C          11.794000    -21.758000     -7.607000
C          10.386000    -21.808000     -7.483000
H           9.898000    -22.773000     -7.382000
C           9.680000    -20.672000     -7.152000
H           8.608000    -20.746000     -6.994000
C          10.387000    -19.508000     -6.842000
H           9.760000    -18.637000     -6.675000
C          11.769000    -19.413000     -7.103000
H          12.263000    -18.460000     -6.938000
C          12.452000    -20.520000     -7.501000
H          13.518000    -20.452000     -7.701000
C          15.521000    -22.843000     -3.376000
C          13.502000    -23.775000     -2.684000
C          14.951000    -27.907000     -1.961000
C          17.366000    -25.551000     -7.191000
C          13.678000    -29.175000     -4.929000
C          14.138000    -22.891000     -3.460000
C          16.512000    -28.133000     -6.881000
C          15.975000    -25.741000     -1.406000
C          11.625000    -25.713000     -5.524000
C          16.277000    -25.976000     -7.938000
C          12.591000    -24.174000     -7.126000
C          12.129000    -26.501000     -6.594000
C          14.477000    -27.397000     -7.827000
C          15.810000    -28.974000     -6.043000
C          12.429000    -23.647000     -4.640000
C          15.720000    -29.125000     -3.658000
C          13.814000    -23.289000     -7.207000
C          15.081000    -23.922000     -7.680000
C          14.302000    -29.157000     -3.694000
C          18.482000    -26.080000     -3.952000
C          17.271000    -27.440000     -2.635000
C          17.210000    -26.153000     -2.027000
C          15.517000    -24.461000     -1.622000
C          16.167000    -23.441000     -6.855000
C          11.924000    -24.349000     -5.786000
C          14.107000    -24.558000     -1.744000
C          15.845000    -27.328000     -7.735000
C          12.389000    -24.206000     -3.408000
C          12.554000    -27.843000     -6.398000
C          18.022000    -24.241000     -5.424000
C          14.873000    -26.657000     -1.374000
C          12.810000    -25.605000     -7.474000
C          17.377000    -24.097000     -3.094000
C          13.721000    -28.289000     -7.010000
C          11.588000    -26.317000     -4.267000
C          17.588000    -28.194000     -4.891000
C          17.676000    -27.660000     -6.206000
C          11.924000    -27.696000     -4.025000
C          17.344000    -24.219000     -6.657000
C          15.138000    -25.221000     -8.189000
C          18.512000    -25.559000     -5.255000
C          14.236000    -22.598000     -5.889000
C          12.630000    -26.379000     -2.193000
C          13.961000    -26.099000     -8.058000
C          12.515000    -28.397000     -5.107000
C          17.410000    -23.538000     -4.380000
C          13.841000    -28.380000     -2.626000
C          16.223000    -23.638000     -2.434000
C          16.143000    -28.309000     -2.562000
C          11.975000    -25.570000     -3.176000
C          12.645000    -27.677000     -2.757000
C          13.541000    -22.751000     -4.689000
C          15.633000    -22.670000     -5.787000
C          18.045000    -27.412000     -3.791000
C          13.713000    -25.878000     -1.456000
C          14.422000    -29.092000     -6.142000
C          18.070000    -26.352000     -6.352000
C          16.490000    -29.036000     -4.826000
C          16.265000    -22.805000     -4.565000
C          17.942000    -25.358000     -2.893000
O          27.999000    -30.568000     -7.445000
C          29.022000    -30.992000     -8.352000
H          29.915000    -31.334000     -7.814000
H          29.341000    -30.189000     -9.028000
H          28.615000    -31.669000     -9.113000
O          29.456000    -29.235000     -6.439000
C          28.333000    -29.620000     -6.564000
C          27.187000    -29.212000     -5.662000
H          27.645000    -28.902000     -4.715000
H          26.676000    -30.151000     -5.415000
C          26.175000    -28.224000     -6.217000
H          26.586000    -27.286000     -6.610000
H          25.636000    -28.553000     -7.114000
C          25.161000    -27.804000     -5.117000
H          24.574000    -28.669000     -4.786000
H          25.712000    -27.413000     -4.252000
C          24.130000    -26.789000     -5.571000
C          23.148000    -27.464000     -6.513000
C          21.912000    -27.958000     -6.046000
H          21.714000    -28.010000     -4.980000
C          21.161000    -28.743000     -6.976000
H          20.277000    -29.252000     -6.605000
C          21.385000    -28.683000     -8.331000
H          20.674000    -29.173000     -8.990000
C          22.513000    -27.925000     -8.768000
H          22.658000    -27.848000     -9.841000
C          23.394000    -27.327000     -7.854000
H          24.372000    -27.011000     -8.204000
C          23.194000    -21.851000     -7.556000
C          21.169000    -22.342000     -6.270000
C          22.045000    -19.415000     -2.893000
C          27.317000    -22.452000     -4.829000
C          23.431000    -21.869000     -0.786000
C          22.226000    -22.715000     -7.071000
C          26.684000    -21.791000     -2.217000
C          22.307000    -19.212000     -5.228000
C          22.097000    -24.716000     -3.196000
C          27.088000    -23.471000     -3.912000
C          23.658000    -25.680000     -4.625000
C          23.249000    -25.004000     -2.423000
C          25.836000    -24.029000     -2.083000
C          25.751000    -21.333000     -1.261000
C          21.830000    -24.360000     -5.585000
C          23.978000    -19.697000     -1.594000
C          24.522000    -25.359000     -5.845000
C          25.839000    -24.695000     -5.601000
C          22.962000    -20.607000     -1.130000
C          25.894000    -19.195000     -5.213000
C          24.193000    -18.654000     -3.762000
C          23.623000    -18.818000     -5.051000
C          22.050000    -20.047000     -6.266000
C          26.111000    -23.702000     -6.517000
C          22.337000    -25.120000     -4.541000
C          21.042000    -20.926000     -5.890000
C          26.726000    -23.134000     -2.625000
C          20.968000    -23.313000     -5.302000
C          23.543000    -24.045000     -1.415000
C          26.535000    -21.272000     -6.512000
C          21.467000    -19.532000     -4.187000
C          24.250000    -25.493000     -3.251000
C          24.411000    -20.131000     -6.927000
C          24.842000    -23.564000     -1.247000
C          21.191000    -23.661000     -2.947000
C          26.129000    -19.638000     -2.844000
C          26.954000    -20.740000     -3.101000
C          21.448000    -22.827000     -1.889000
C          26.874000    -22.584000     -6.123000
C          26.354000    -24.591000     -4.256000
C          26.749000    -20.332000     -5.445000
C          23.977000    -24.437000     -6.810000
C          20.491000    -21.625000     -3.577000
C          25.569000    -24.999000     -3.128000
C          22.673000    -22.983000     -1.163000
C          25.307000    -21.130000     -7.214000
C          21.856000    -20.418000     -1.946000
C          23.127000    -20.522000     -7.091000
C          23.365000    -19.050000     -2.705000
C          20.576000    -22.977000     -3.996000
C          21.089000    -21.559000     -2.283000
C          22.644000    -23.990000     -6.646000
C          24.943000    -23.488000     -7.256000
C          25.505000    -18.995000     -3.902000
C          20.717000    -20.601000     -4.559000
C          24.754000    -22.210000     -0.855000
C          27.253000    -21.111000     -4.447000
C          25.410000    -20.033000     -1.661000
C          24.538000    -22.237000     -7.618000
C          24.695000    -19.167000     -5.924000
$end

--------------------------------------------------------------
 ----------------------------------------------------------------
             Standard Nuclear Orientation (Angstroms)
    I     Atom           X                Y                Z
 ----------------------------------------------------------------
    1      O       8.4172054955     4.5811591407     5.5117525383
    2      C       8.9385370777     5.7977393037     6.1289900036
    3      H      10.0196399595     5.8949968887     5.9683926158
    4      H       8.7672682796     5.8436484526     7.2118271792
    5      H       8.5035851761     6.6834396334     5.6511199698
    6      O      10.2375121298     3.3752055185     6.0931169835
    7      C       9.1929995953     3.4685960051     5.6113807669
    8      C       8.4449094830     2.3020220209     5.0354464624
    9      H       7.4963546321     2.2628014707     5.5852195458
   10      H       9.0319191519     1.3923016801     5.2160885123
   11      C       8.3124569913     2.4213257479     3.5544785498
   12      H       8.1228398665     3.4473019391     3.2177379954
   13      H       9.3152968955     2.2392741643     3.1500835110
   14      C       7.1753702071     1.5221506394     3.0505263997
   15      H       7.4019846420     0.5000642703     3.3787189528
   16      H       6.2500928611     1.8812597383     3.5166116795
   17      C       6.9490217032     1.6409744280     1.4887481626
   18      C       7.5889081872     2.8188898521     0.8158376622
   19      C       8.9579730572     2.7985797035     0.4614524488
   20      H       9.4608540197     1.8425721144     0.3486241400
   21      C       9.5535676632     3.9250740668    -0.0627331240
   22      H      10.5868645232     3.8689369274    -0.3925364301
   23      C       8.7590465741     5.0419396185    -0.3314198901
   24      H       9.3144781848     5.9146590510    -0.6623511789
   25      C       7.4364192939     5.1182932508     0.1501371684
   26      H       6.8841913220     6.0418413990     0.0032593791
   27      C       6.8733901588     4.0264614592     0.7342977046
   28      H       5.8531803089     4.0799951358     1.1048189692
   29      C       3.2610271319     1.3108243108    -2.6431071038
   30      C       5.1737623058     0.3849416507    -3.5960155226
   31      C       3.7919505903    -3.8287831743    -3.7717240368
   32      C       2.1811331544    -1.1477010349     1.6090683538
   33      C       5.5872279046    -4.8304489617    -0.9769034674
   34      C       4.6397147053     1.3077144789    -2.7889148672
   35      C       3.0749512740    -3.7211926563     1.3437948285
   36      C       2.6044587909    -1.7407438177    -4.2990871675
   37      C       7.5699620341    -1.2775589417    -0.9808880607
   38      C       3.3946501154    -1.4840272763     2.1911475962
   39      C       6.8208451843     0.3520433125     0.6473936835
   40      C       7.2814976436    -1.9951208905     0.2114848445
   41      C       5.2070725130    -2.8589460416     1.8808486412
   42      C       3.6620815675    -4.6040188470     0.4616242466
   43      C       6.5489617515     0.6917570101    -1.8615588873
   44      C       3.3630733729    -4.9343345715    -1.8879739364
   45      C       5.5935500396     1.2064268119     0.8694082410
   46      C       4.4484077330     0.5765814284     1.5916622757
   47      C       4.7676869128    -4.9241969492    -2.0879790173
   48      C       0.5678042368    -1.9534521068    -1.3513966459
   49      C       1.5982424324    -3.3760749357    -2.7531638918
   50      C       1.5064339968    -2.1381213523    -3.4523034605
   51      C       3.0401970019    -0.4357834862    -4.2540233827
   52      C       3.2227270557     0.9628430777     0.9284196237
   53      C       7.2639337214     0.0936699527    -0.7696559823
   54      C       4.4537281373    -0.4840784625    -4.3635237238
   55      C       3.8410050985    -2.8351017382     2.0147899275
   56      C       6.4073735694     0.0415419811    -3.0401505057
   57      C       6.8840647576    -3.3594330374     0.1849430487
   58      C       1.1904823763     0.0047212438    -0.1111813163
   59      C       3.7218438792    -2.6256309473    -4.4504454581
   60      C       6.7197932452    -1.0536845999     1.1275431830
   61      C       1.4356721725    -0.0119929527    -2.5205927796
   62      C       5.8529274222    -3.7895023068     1.0138852778
   63      C       7.4230923984    -1.9746190862    -2.1803756451
   64      C       1.6884988768    -3.9639118831    -0.4283321780
   65      C       1.7974887765    -3.3335992337     0.8416883595
   66      C       7.1072534221    -3.3768595868    -2.2644489443
   67      C       2.0613062400     0.1396797730     0.9860465514
   68      C       4.5282943917    -0.6807891550     2.1936326551
   69      C       0.7324906101    -1.3354070442    -0.1019773011
   70      C       4.9324161183     1.7827018293    -0.4047573850
   71      C       6.0563180016    -2.2238141082    -4.0407287270
   72      C       5.7017231519    -1.5332920553     1.9296672220
   73      C       6.7315503513    -4.0092022636    -1.0518501064
   74      C       1.5930736461     0.6425437269    -1.2900756074
   75      C       5.0145470751    -4.2186368416    -3.2703998370
   76      C       2.4455533331     0.4270040604    -3.3954748654
   77      C       2.7325983947    -4.2165314718    -2.9525212637
   78      C       6.8316830920    -1.3242081204    -3.2411581901
   79      C       6.1866342497    -3.4748203810    -3.3917865256
   80      C       5.4253296160     1.5577328193    -1.6903931143
   81      C       3.5417664246     1.6644452137    -0.2658120640
   82      C       1.0252194521    -3.2812438097    -1.4887083878
   83      C       4.8473209213    -1.8108088749    -4.6193579149
   84      C       5.0509763993    -4.6756118322     0.3346809891
   85      C       1.3809333440    -2.0296835326     0.9587414073
   86      C       2.7935302890    -4.7776773160    -0.6167052080
   87      C       2.7226156597     1.4189758671    -1.3519381267
   88      C       0.8962047077    -1.2998335855    -2.5343171671
   89      O      -8.0544429925    -6.4232192272     3.9959874440
   90      C      -8.8958520252    -6.8048226891     5.0893143108
   91      H      -9.8509947037    -7.2115518951     4.7341653045
   92      H      -9.1307726435    -5.9616444885     5.7506832133
   93      H      -8.3420177692    -7.4101364888     5.8172990775
   94      O      -9.7097359082    -5.2118908795     3.1566645041
   95      C      -8.5670032359    -5.5549532186     3.1185952083
   96      C      -7.6029158033    -5.1855073791     2.0107011729
   97      H      -8.2230175676    -4.9616090969     1.1343357462
   98      H      -7.1025141003    -6.1261241231     1.7486147817
   99      C      -6.5535689039    -4.1303209822     2.3169131134
  100      H      -6.9312804853    -3.1767706412     2.7058728908
  101      H      -5.8611382280    -4.3747345758     3.1318810601
  102      C      -5.7527318641    -3.7677064501     1.0355986567
  103      H      -5.1942664433    -4.6388838521     0.6729399908
  104      H      -6.4541882582    -3.4593844575     0.2497211370
  105      C      -4.7024169320    -2.6928035353     1.2374012019
  106      C      -3.5521388343    -3.2663603611     2.0468490789
  107      C      -2.3914184338    -3.7601839478     1.4154320876
  108      H      -2.3702033525    -3.8880117520     0.3377150687
  109      C      -1.4663581830    -4.4506927809     2.2595808209
  110      H      -0.6360715435    -4.9618792059     1.7826211421
  111      C      -1.4658037677    -4.2935206080     3.6252665830
  112      H      -0.6367172921    -4.7118292845     4.1887694375
  113      C      -2.5356201462    -3.5358725328     4.1904031244
  114      H      -2.5044512222    -3.3811242705     5.2643512021
  115      C      -3.5786598330    -3.0341226848     3.3970076986
  116      H      -4.4973173397    -2.7195064185     3.8827288022
  117      C      -3.6500813874     2.4065092585     2.6830027833
  118      C      -1.8471611497     1.8749276115     1.1137986636
  119      C      -3.3851760676     4.5098344145    -2.2671198879
  120      C      -8.1392904202     1.4848371336     0.7350854971
  121      C      -5.0005974751     1.8645068880    -3.9330181301
  122      C      -2.7416184436     1.5351108663     2.1049846850
  123      C      -7.9731886363     1.9615229140    -1.9861889955
  124      C      -3.2660050491     4.8833914470     0.0584620634
  125      C      -3.1740891511    -0.7518949659    -1.5853866256
  126      C      -8.0241981847     0.4054589865    -0.1328935309
  127      C      -4.4378720444    -1.6467122137     0.1496098849
  128      C      -4.4254267804    -1.1299408089    -2.1320240539
  129      C      -7.0700042524    -0.2558203919    -2.1017339315
  130      C      -7.2299226937     2.3707751879    -3.1150190602
  131      C      -2.5308201370    -0.2070629538     0.6938038127
  132      C      -5.4932408186     4.0759270296    -3.2005015820
  133      C      -5.1007556507    -1.2574520503     1.4713507255
  134      C      -6.4654886242    -0.6507836836     1.4051812163
  135      C      -4.5321662983     3.1616158043    -3.7626605894
  136      C      -6.8040232216     4.7998255046     0.6437202495
  137      C      -5.3889659933     5.2752396134    -1.1064447329
  138      C      -4.6078776649     5.2261028547     0.0771107589
  139      C      -2.8079316204     4.1376194002     1.0951446513
  140      C      -6.6220796101     0.4014129631     2.2812237265
  141      C      -3.1723696608    -1.0583942560    -0.1940217459
  142      C      -1.8414541674     3.2607106319     0.6186644891
  143      C      -7.8934322160     0.6529931021    -1.4829339462
  144      C      -1.7700041035     0.8387165025     0.1969675299
  145      C      -4.9199758567    -0.2593110257    -3.1417794658
  146      C      -7.1380647489     2.8112406756     2.1754374675
  147      C      -2.5972609314     4.5081458602    -1.0833142084
  148      C      -5.2555946862    -1.5817583953    -1.1154670624
  149      C      -5.0221221992     4.0390223624     2.1467799041
  150      C      -6.2470941321     0.1712712266    -3.1232860267
  151      C      -2.3646199131     0.3056757941    -2.0567311283
  152      C      -7.4089711121     4.1706967428    -1.6150117069
  153      C      -8.1354146102     3.0691368732    -1.1460514765
  154      C      -2.8259551581     1.0489223574    -3.1130091874
  155      C      -7.4838122244     1.4644586202     1.9425796175
  156      C      -7.1992186050    -0.6642053604     0.1615871612
  157      C      -7.5627562181     3.6606394890     1.0956023820
  158      C      -4.4412890362    -0.2496431795     2.2636632044
  159      C      -1.6523288560     2.4024829177    -1.6986287179
  160      C      -6.5955137064    -1.1353334122    -1.0502922693
  161      C      -4.1467589719     0.8040100088    -3.6105352941
  162      C      -5.8177060748     3.0404479231     2.6498518533
  163      C      -3.3150960179     3.4430020701    -3.1590260127
  164      C      -3.7140508101     3.6974208782     2.1204993583
  165      C      -4.7316451030     4.8226901912    -2.2565652777
  166      C      -1.6127709249     1.0846326007    -1.1767132919
  167      C      -2.4579107046     2.3527862983    -2.8754737082
  168      C      -3.1726428385     0.2202661169     1.8473507277
  169      C      -5.3576239853     0.7035480591     2.7969827368
  170      C      -6.6451250328     4.9097265520    -0.7247515717
  171      C      -1.7539338835     3.4918961955    -0.7675910555
  172      C      -6.2793182507     1.4932618973    -3.6192963824
  173      C      -8.1929940950     2.7939704188     0.2538506720
  174      C      -6.8799076564     3.7064932100    -2.8708309375
  175      C      -4.9488502962     1.9892964511     2.9965451169
  176      C      -5.5061914170     4.9152947996     1.1399111897
 ----------------------------------------------------------------
 Molecular Point Group                 C1    NOp =  1
 Largest Abelian Subgroup              C1    NOp =  1
 Nuclear Repulsion Energy = 34390.2996906186 hartrees
 There are      462 alpha and      462 beta electrons
 Requested basis set is 6-31G(d,p)
 There are 676 shells and 2360 basis functions

 Total QAlloc Memory Limit  20000 MB
 Mega-Array Size      4888 MB
 MEM_STATIC part      5000 MB
 A cutoff of  1.0D-08 yielded  37325 shell pairs
 There are    526459 function pairs
 
 -------------------------------------------------------
 OpenMP Integral Computing Module                       
 Release: version 1.0, May 2013, Q-Chem Inc. Pittsburgh 
 -------------------------------------------------------
 Integral Job Info:
 Integral job number is                      11
 Integral operator is                         1
 short-range coefficients                     0
 long-range coefficients              100000000
 Omega coefficients                           0
 if combine SR and LR in K                    0
 Integral screening is                        0
 Integral computing path is                   2
 max size of driver memory is            800000
 size of driver memory is                593474
 size of scratch memory is              2260544
 max col of scratch BK array               1296
 max len of scratch array in speh3          155
 max len of scratch index in speh4           18
 max int batch size is                      520
 min int batch size is                       52
 fixed nKL is                                52
 max L of basis functions is                  2
 order of int derivative is                   0
 number of shells is                        676
 number of basis is                        2360
 number of cartesian basis is              2360
 number of contracted shell pairs         37325
 number of primitive shell pairs         113431
 maxK2 (contraction) of shell pair           36
 max number of K2 of shell pair               1
 max number of CS2 of shell pair           7168
 max number of PS2 of shell pair          34446
 mem total for path MDJ                 1497176
 -------------------------------------------------------
 Smallest overlap matrix eigenvalue = 2.35E-04

 Scale SEOQF with 1.000000e-02/1.000000e-02/1.000000e-02

 Standard Electronic Orientation quadrupole field applied
 Nucleus-field energy     =     0.0000001043 hartrees
 Guess from superposition of atomic densities
 Warning:  Energy on first SCF cycle will be non-variational
 A restricted hybrid HF-DFT SCF calculation will be
 performed using Pulay DIIS extrapolation
 Exchange:     0.2000 Hartree-Fock + 0.0800 Slater + 0.7200 B88
 Correlation:  0.1900 VWN1RPA + 0.8100 LYP
 Using SG-1 standard quadrature grid
 SCF converges when DIIS error is below 1.0E-05
 using 16 threads for integral computing 
 -------------------------------------------------------
 OpenMP BLAS3 based DFT computing Module                
 Release: version 1.0, May 2013, Q-Chem Inc. Pittsburgh 
 -------------------------------------------------------
 ---------------------------------------
  Cycle       Energy         DIIS Error
 ---------------------------------------
    1   -5859.5678728770      1.85E-02
    2   -5803.0754084365      1.30E-03
    3   -5802.3985010925      1.74E-03
    4   -5803.9448628206      6.34E-04
    5   -5804.1733652194      3.00E-04
    6   -5804.2357625437      1.11E-04
    7   -5804.2428931633      4.71E-05
    8   -5804.2438108049      3.15E-05
    9   -5804.2445884403      8.00E-06 Convergence criterion met
 ---------------------------------------
 SCF time:  CPU 7260.55 s  wall 842.94 s
 SCF   energy in the final basis set = -5804.2445884403
 Total energy in the final basis set = -5804.2445884403
 
 --------------------------------------------------------------
 
                    Orbital Energies (a.u.)
 --------------------------------------------------------------
 
 Alpha MOs
 -- Occupied --
-19.193 -19.192 -19.139 -19.130 -10.311 -10.308 -10.246 -10.245
-10.243 -10.243 -10.241 -10.235 -10.235 -10.234 -10.229 -10.229
-10.228 -10.228 -10.227 -10.225 -10.225 -10.224 -10.224 -10.223
-10.222 -10.221 -10.220 -10.220 -10.220 -10.220 -10.220 -10.219
-10.219 -10.219 -10.219 -10.219 -10.219 -10.219 -10.218 -10.218
-10.218 -10.217 -10.217 -10.217 -10.217 -10.217 -10.217 -10.216
-10.216 -10.216 -10.216 -10.215 -10.215 -10.215 -10.215 -10.215
-10.215 -10.215 -10.215 -10.214 -10.214 -10.214 -10.214 -10.214
-10.214 -10.213 -10.213 -10.213 -10.213 -10.213 -10.213 -10.213
-10.213 -10.213 -10.213 -10.212 -10.212 -10.212 -10.212 -10.212
-10.212 -10.212 -10.212 -10.212 -10.212 -10.212 -10.211 -10.211
-10.211 -10.211 -10.211 -10.211 -10.211 -10.211 -10.211 -10.211
-10.210 -10.210 -10.210 -10.210 -10.210 -10.210 -10.210 -10.209
-10.209 -10.209 -10.209 -10.209 -10.209 -10.209 -10.209 -10.209
-10.208 -10.208 -10.207 -10.207 -10.207 -10.207 -10.207 -10.206
-10.206 -10.206 -10.206 -10.205 -10.205 -10.205 -10.205 -10.205
-10.204 -10.203 -10.203 -10.203 -10.203 -10.202 -10.202 -10.202
-10.201 -10.201 -10.200 -10.200 -10.199 -10.199 -10.198 -10.198
-10.198 -10.196 -10.193 -10.192  -1.110  -1.110  -1.033  -1.017
 -0.986  -0.983  -0.968  -0.968  -0.966  -0.965  -0.961  -0.959
 -0.936  -0.932  -0.931  -0.928  -0.928  -0.927  -0.924  -0.923
 -0.922  -0.921  -0.900  -0.896  -0.894  -0.890  -0.888  -0.881
 -0.877  -0.874  -0.856  -0.855  -0.844  -0.842  -0.841  -0.840
 -0.839  -0.835  -0.823  -0.823  -0.811  -0.808  -0.802  -0.798
 -0.797  -0.795  -0.795  -0.794  -0.793  -0.791  -0.786  -0.784
 -0.773  -0.772  -0.771  -0.771  -0.767  -0.766  -0.766  -0.763
 -0.761  -0.750  -0.744  -0.741  -0.734  -0.730  -0.719  -0.715
 -0.715  -0.714  -0.714  -0.713  -0.712  -0.711  -0.710  -0.709
 -0.709  -0.709  -0.706  -0.706  -0.704  -0.702  -0.674  -0.672
 -0.662  -0.659  -0.658  -0.658  -0.648  -0.647  -0.634  -0.628
 -0.628  -0.626  -0.626  -0.625  -0.624  -0.620  -0.620  -0.617
 -0.616  -0.616  -0.615  -0.614  -0.613  -0.612  -0.611  -0.610
 -0.607  -0.604  -0.604  -0.603  -0.571  -0.569  -0.566  -0.565
 -0.562  -0.560  -0.560  -0.559  -0.558  -0.556  -0.556  -0.552
 -0.537  -0.536  -0.532  -0.531  -0.528  -0.527  -0.526  -0.525
 -0.524  -0.523  -0.519  -0.519  -0.518  -0.517  -0.516  -0.515
 -0.509  -0.508  -0.503  -0.499  -0.493  -0.493  -0.488  -0.487
 -0.485  -0.484  -0.483  -0.482  -0.481  -0.479  -0.479  -0.477
 -0.476  -0.474  -0.472  -0.470  -0.469  -0.469  -0.467  -0.467
 -0.466  -0.466  -0.465  -0.464  -0.464  -0.460  -0.460  -0.459
 -0.458  -0.455  -0.453  -0.452  -0.449  -0.447  -0.444  -0.443
 -0.443  -0.442  -0.441  -0.441  -0.438  -0.437  -0.436  -0.434
 -0.433  -0.432  -0.430  -0.429  -0.428  -0.427  -0.427  -0.425
 -0.424  -0.423  -0.421  -0.421  -0.420  -0.420  -0.420  -0.419
 -0.419  -0.418  -0.416  -0.416  -0.415  -0.414  -0.413  -0.413
 -0.412  -0.412  -0.410  -0.410  -0.403  -0.400  -0.399  -0.396
 -0.395  -0.393  -0.392  -0.391  -0.389  -0.388  -0.387  -0.387
 -0.384  -0.381  -0.376  -0.372  -0.370  -0.369  -0.369  -0.367
 -0.366  -0.365  -0.365  -0.364  -0.361  -0.360  -0.359  -0.358
 -0.357  -0.356  -0.356  -0.356  -0.355  -0.354  -0.353  -0.352
 -0.350  -0.350  -0.347  -0.347  -0.346  -0.346  -0.345  -0.342
 -0.342  -0.341  -0.340  -0.340  -0.339  -0.338  -0.336  -0.336
 -0.333  -0.333  -0.330  -0.330  -0.330  -0.328  -0.326  -0.323
 -0.311  -0.309  -0.305  -0.301  -0.286  -0.285  -0.272  -0.271
 -0.271  -0.269  -0.268  -0.267  -0.267  -0.266  -0.266  -0.266
 -0.265  -0.263  -0.261  -0.260  -0.257  -0.257  -0.256  -0.253
 -0.250  -0.249  -0.246  -0.244  -0.220  -0.217  -0.213  -0.211
 -0.210  -0.208  -0.208  -0.205  -0.200  -0.199
 -- Virtual --
 -0.126  -0.120  -0.118  -0.113  -0.109  -0.108  -0.079  -0.076
 -0.073  -0.068  -0.061  -0.057  -0.052  -0.050  -0.025  -0.024
 -0.022  -0.021  -0.021  -0.019  -0.017  -0.015  -0.014  -0.013
 -0.010  -0.008  -0.006  -0.006  -0.006  -0.004   0.004   0.007
  0.014   0.024   0.039   0.040   0.042   0.043   0.045   0.046
  0.049   0.052   0.054   0.060   0.061   0.063   0.066   0.068
  0.072   0.075   0.078   0.085   0.086   0.087   0.092   0.096
  0.098   0.099   0.101   0.104   0.106   0.107   0.109   0.111
  0.112   0.113   0.115   0.116   0.117   0.118   0.120   0.121
  0.122   0.126   0.127   0.128   0.129   0.131   0.135   0.137
  0.138   0.142   0.144   0.147   0.148   0.150   0.152   0.154
  0.155   0.158   0.160   0.164   0.165   0.166   0.167   0.167
  0.170   0.172   0.174   0.175   0.177   0.179   0.180   0.182
  0.183   0.185   0.186   0.187   0.188   0.190   0.190   0.192
  0.195   0.195   0.199   0.201   0.202   0.204   0.205   0.206
  0.208   0.209   0.213   0.215   0.216   0.217   0.218   0.220
  0.220   0.221   0.223   0.225   0.227   0.227   0.230   0.232
  0.233   0.234   0.234   0.236   0.236   0.241   0.242   0.242
  0.245   0.247   0.249   0.250   0.253   0.256   0.257   0.264
  0.265   0.269   0.269   0.273   0.274   0.277   0.277   0.280
  0.283   0.286   0.288   0.294   0.296   0.301   0.307   0.309
  0.310   0.314   0.314   0.315   0.320   0.321   0.322   0.322
  0.323   0.326   0.328   0.329   0.330   0.334   0.336   0.336
  0.338   0.339   0.339   0.341   0.347   0.350   0.352   0.353
  0.356   0.357   0.361   0.366   0.371   0.377   0.384   0.388
  0.395   0.396   0.398   0.403   0.405   0.405   0.410   0.410
  0.413   0.415   0.416   0.418   0.421   0.422   0.425   0.426
  0.430   0.431   0.434   0.435   0.438   0.441   0.444   0.449
  0.451   0.452   0.454   0.457   0.460   0.462   0.462   0.464
  0.465   0.465   0.467   0.470   0.471   0.473   0.475   0.476
  0.478   0.479   0.479   0.483   0.484   0.485   0.487   0.487
  0.488   0.489   0.491   0.492   0.493   0.494   0.496   0.497
  0.498   0.500   0.501   0.501   0.503   0.504   0.504   0.505
  0.507   0.508   0.509   0.510   0.511   0.511   0.512   0.513
  0.513   0.514   0.515   0.516   0.517   0.518   0.519   0.520
  0.521   0.521   0.522   0.523   0.523   0.524   0.525   0.526
  0.527   0.528   0.529   0.529   0.530   0.532   0.533   0.534
  0.535   0.536   0.537   0.538   0.538   0.539   0.539   0.540
  0.541   0.542   0.543   0.543   0.544   0.545   0.545   0.546
  0.547   0.547   0.548   0.549   0.550   0.551   0.552   0.552
  0.553   0.555   0.556   0.557   0.557   0.557   0.558   0.559
  0.559   0.561   0.561   0.562   0.562   0.564   0.565   0.566
  0.567   0.568   0.569   0.570   0.570   0.571   0.572   0.572
  0.573   0.574   0.575   0.576   0.576   0.577   0.578   0.579
  0.579   0.580   0.581   0.582   0.583   0.584   0.585   0.586
  0.586   0.587   0.588   0.589   0.590   0.591   0.592   0.592
  0.593   0.594   0.594   0.596   0.597   0.598   0.599   0.599
  0.601   0.603   0.604   0.604   0.605   0.607   0.608   0.609
  0.610   0.612   0.613   0.614   0.614   0.615   0.616   0.618
  0.619   0.620   0.622   0.623   0.624   0.626   0.627   0.628
  0.629   0.630   0.631   0.632   0.633   0.634   0.635   0.635
  0.635   0.637   0.638   0.638   0.640   0.640   0.642   0.643
  0.644   0.646   0.646   0.648   0.648   0.650   0.651   0.652
  0.653   0.653   0.655   0.656   0.657   0.657   0.659   0.660
  0.661   0.661   0.662   0.663   0.664   0.665   0.665   0.667
  0.667   0.668   0.669   0.669   0.670   0.672   0.673   0.673
  0.673   0.675   0.676   0.677   0.677   0.679   0.680   0.682
  0.683   0.683   0.684   0.687   0.689   0.689   0.690   0.692
  0.694   0.694   0.695   0.696   0.696   0.698   0.699   0.701
  0.702   0.704   0.705   0.705   0.707   0.708   0.708   0.710
  0.712   0.713   0.714   0.715   0.716   0.717   0.718   0.719
  0.721   0.721   0.723   0.724   0.725   0.726   0.727   0.729
  0.730   0.730   0.731   0.732   0.734   0.736   0.737   0.739
  0.739   0.740   0.740   0.743   0.743   0.745   0.747   0.748
  0.749   0.751   0.752   0.753   0.755   0.757   0.757   0.760
  0.760   0.762   0.763   0.764   0.765   0.766   0.768   0.769
  0.770   0.771   0.772   0.774   0.774   0.776   0.778   0.779
  0.780   0.781   0.781   0.782   0.783   0.784   0.785   0.787
  0.788   0.789   0.791   0.792   0.794   0.795   0.797   0.798
  0.799   0.799   0.801   0.802   0.803   0.804   0.805   0.807
  0.808   0.808   0.810   0.811   0.811   0.812   0.813   0.814
  0.815   0.815   0.816   0.816   0.817   0.818   0.818   0.819
  0.820   0.821   0.822   0.823   0.824   0.825   0.825   0.826
  0.827   0.827   0.828   0.830   0.832   0.832   0.835   0.836
  0.837   0.839   0.841   0.842   0.845   0.845   0.846   0.846
  0.850   0.854   0.856   0.856   0.858   0.860   0.863   0.867
  0.868   0.871   0.875   0.878   0.882   0.884   0.885   0.889
  0.892   0.896   0.898   0.898   0.901   0.901   0.905   0.910
  0.910   0.914   0.914   0.918   0.920   0.921   0.922   0.927
  0.928   0.929   0.931   0.932   0.934   0.936   0.938   0.939
  0.941   0.942   0.944   0.947   0.947   0.948   0.951   0.951
  0.955   0.956   0.957   0.960   0.965   0.968   0.969   0.970
  0.971   0.974   0.976   0.980   0.981   0.985   0.985   0.991
  0.993   0.993   0.996   0.999   1.002   1.004   1.005   1.006
  1.010   1.011   1.015   1.015   1.018   1.019   1.020   1.022
  1.024   1.025   1.026   1.028   1.028   1.031   1.032   1.036
  1.037   1.038   1.040   1.041   1.044   1.045   1.046   1.048
  1.051   1.053   1.054   1.055   1.057   1.058   1.061   1.061
  1.062   1.064   1.066   1.067   1.068   1.068   1.071   1.072
  1.073   1.074   1.077   1.078   1.079   1.081   1.084   1.086
  1.087   1.088   1.090   1.092   1.094   1.096   1.097   1.098
  1.099   1.101   1.103   1.104   1.104   1.106   1.108   1.112
  1.113   1.117   1.119   1.122   1.125   1.127   1.129   1.130
  1.134   1.134   1.137   1.138   1.140   1.142   1.145   1.146
  1.149   1.150   1.152   1.153   1.155   1.157   1.157   1.162
  1.163   1.164   1.168   1.169   1.170   1.173   1.173   1.174
  1.175   1.176   1.178   1.179   1.181   1.182   1.185   1.187
  1.188   1.190   1.191   1.193   1.195   1.196   1.198   1.199
  1.202   1.204   1.206   1.209   1.211   1.212   1.215   1.220
  1.221   1.226   1.227   1.232   1.232   1.237   1.241   1.243
  1.248   1.251   1.254   1.254   1.254   1.256   1.259   1.260
  1.261   1.264   1.266   1.267   1.268   1.271   1.275   1.275
  1.278   1.281   1.282   1.285   1.288   1.288   1.291   1.292
  1.293   1.297   1.298   1.298   1.303   1.305   1.309   1.311
  1.315   1.317   1.319   1.320   1.321   1.324   1.327   1.330
  1.331   1.336   1.337   1.339   1.343   1.345   1.349   1.352
  1.353   1.356   1.356   1.358   1.359   1.362   1.366   1.368
  1.370   1.374   1.375   1.376   1.380   1.382   1.383   1.387
  1.389   1.391   1.392   1.395   1.398   1.400   1.402   1.404
  1.406   1.409   1.413   1.415   1.419   1.423   1.425   1.433
  1.434   1.438   1.439   1.442   1.447   1.448   1.450   1.453
  1.453   1.457   1.458   1.459   1.461   1.461   1.463   1.463
  1.465   1.468   1.471   1.474   1.475   1.476   1.477   1.479
  1.481   1.482   1.485   1.489   1.491   1.493   1.497   1.499
  1.501   1.503   1.506   1.510   1.513   1.514   1.517   1.521
  1.523   1.525   1.528   1.529   1.534   1.536   1.540   1.544
  1.544   1.545   1.548   1.549   1.552   1.553   1.556   1.558
  1.561   1.563   1.567   1.568   1.571   1.573   1.576   1.579
  1.581   1.583   1.584   1.587   1.590   1.592   1.595   1.595
  1.597   1.599   1.599   1.603   1.606   1.608   1.611   1.613
  1.622   1.627   1.629   1.632   1.637   1.642   1.643   1.645
  1.650   1.651   1.654   1.656   1.662   1.663   1.664   1.666
  1.674   1.679   1.683   1.690   1.692   1.694   1.696   1.699
  1.703   1.706   1.707   1.710   1.711   1.714   1.715   1.717
  1.717   1.718   1.722   1.723   1.724   1.730   1.732   1.733
  1.735   1.737   1.738   1.738   1.740   1.743   1.744   1.747
  1.750   1.751   1.752   1.754   1.754   1.756   1.758   1.759
  1.761   1.761   1.764   1.766   1.768   1.770   1.771   1.772
  1.774   1.775   1.776   1.778   1.779   1.780   1.781   1.782
  1.782   1.786   1.787   1.788   1.789   1.790   1.791   1.791
  1.792   1.794   1.796   1.797   1.799   1.800   1.801   1.803
  1.804   1.805   1.806   1.807   1.808   1.809   1.810   1.812
  1.814   1.815   1.817   1.820   1.821   1.824   1.826   1.826
  1.828   1.829   1.832   1.833   1.834   1.837   1.840   1.843
  1.847   1.848   1.850   1.852   1.853   1.855   1.860   1.861
  1.862   1.864   1.865   1.868   1.871   1.872   1.875   1.876
  1.878   1.879   1.880   1.882   1.883   1.885   1.887   1.890
  1.891   1.892   1.894   1.896   1.897   1.899   1.901   1.904
  1.908   1.908   1.912   1.912   1.916   1.919   1.923   1.923
  1.925   1.927   1.927   1.929   1.930   1.932   1.937   1.938
  1.940   1.941   1.943   1.944   1.945   1.949   1.951   1.953
  1.956   1.959   1.960   1.961   1.963   1.969   1.970   1.971
  1.972   1.974   1.976   1.978   1.982   1.984   1.985   1.986
  1.988   1.990   1.991   1.993   1.994   1.997   1.998   2.000
  2.002   2.004   2.005   2.005   2.006   2.009   2.011   2.012
  2.013   2.013   2.016   2.016   2.018   2.020   2.022   2.023
  2.024   2.025   2.027   2.028   2.029   2.030   2.031   2.031
  2.033   2.033   2.036   2.037   2.037   2.039   2.041   2.041
  2.042   2.044   2.045   2.046   2.047   2.048   2.049   2.051
  2.052   2.054   2.055   2.057   2.057   2.059   2.060   2.061
  2.062   2.063   2.065   2.066   2.067   2.068   2.068   2.071
  2.071   2.073   2.074   2.075   2.076   2.078   2.079   2.080
  2.081   2.082   2.084   2.086   2.087   2.088   2.089   2.090
  2.091   2.093   2.097   2.099   2.100   2.103   2.106   2.108
  2.111   2.112   2.115   2.117   2.118   2.119   2.120   2.122
  2.125   2.127   2.132   2.133   2.136   2.139   2.145   2.148
  2.149   2.153   2.155   2.157   2.159   2.163   2.169   2.176
  2.177   2.184   2.194   2.195   2.200   2.203   2.205   2.207
  2.210   2.211   2.218   2.220   2.222   2.225   2.226   2.228
  2.228   2.231   2.233   2.238   2.244   2.244   2.246   2.247
  2.250   2.253   2.257   2.260   2.261   2.266   2.268   2.269
  2.272   2.274   2.275   2.276   2.278   2.281   2.284   2.285
  2.289   2.290   2.293   2.297   2.300   2.301   2.308   2.308
  2.310   2.312   2.313   2.315   2.316   2.318   2.319   2.321
  2.325   2.327   2.330   2.334   2.339   2.341   2.341   2.342
  2.348   2.350   2.352   2.354   2.356   2.357   2.360   2.361
  2.361   2.363   2.365   2.366   2.369   2.370   2.374   2.375
  2.376   2.379   2.379   2.382   2.383   2.383   2.385   2.386
  2.387   2.390   2.394   2.395   2.395   2.399   2.400   2.401
  2.402   2.403   2.405   2.408   2.409   2.410   2.411   2.413
  2.413   2.415   2.417   2.421   2.422   2.424   2.425   2.426
  2.428   2.430   2.432   2.438   2.441   2.441   2.444   2.444
  2.445   2.447   2.452   2.454   2.456   2.461   2.462   2.463
  2.466   2.468   2.472   2.473   2.474   2.476   2.477   2.479
  2.484   2.484   2.486   2.487   2.489   2.491   2.493   2.493
  2.497   2.499   2.503   2.503   2.504   2.507   2.511   2.516
  2.516   2.518   2.519   2.522   2.525   2.526   2.529   2.530
  2.531   2.534   2.535   2.535   2.537   2.539   2.540   2.545
  2.546   2.548   2.551   2.553   2.556   2.564   2.567   2.570
  2.572   2.578   2.582   2.583   2.588   2.591   2.591   2.593
  2.595   2.598   2.602   2.604   2.605   2.607   2.608   2.610
  2.612   2.614   2.615   2.616   2.619   2.621   2.623   2.626
  2.628   2.629   2.629   2.632   2.633   2.634   2.635   2.637
  2.638   2.640   2.642   2.646   2.647   2.648   2.650   2.653
  2.653   2.655   2.657   2.657   2.660   2.663   2.666   2.666
  2.668   2.669   2.671   2.672   2.674   2.675   2.677   2.680
  2.681   2.682   2.685   2.687   2.688   2.691   2.692   2.693
  2.696   2.698   2.703   2.705   2.705   2.709   2.713   2.713
  2.715   2.720   2.721   2.723   2.725   2.727   2.728   2.731
  2.733   2.736   2.737   2.739   2.741   2.745   2.746   2.750
  2.752   2.753   2.755   2.760   2.762   2.764   2.766   2.767
  2.770   2.773   2.774   2.776   2.777   2.778   2.783   2.785
  2.787   2.791   2.793   2.794   2.798   2.801   2.803   2.804
  2.812   2.814   2.815   2.819   2.821   2.823   2.825   2.827
  2.831   2.832   2.836   2.842   2.844   2.849   2.850   2.852
  2.855   2.856   2.859   2.862   2.863   2.867   2.868   2.870
  2.871   2.872   2.874   2.878   2.881   2.883   2.886   2.888
  2.888   2.889   2.890   2.892   2.894   2.895   2.897   2.899
  2.900   2.901   2.902   2.906   2.908   2.910   2.912   2.915
  2.917   2.919   2.920   2.923   2.924   2.925   2.929   2.932
  2.932   2.933   2.934   2.936   2.937   2.938   2.940   2.941
  2.943   2.947   2.948   2.953   2.956   2.959   2.962   2.966
  2.970   2.972   2.977   2.980   2.982   2.982   2.986   2.987
  2.990   2.994   2.995   2.995   3.002   3.005   3.009   3.011
  3.014   3.015   3.017   3.024   3.025   3.028   3.030   3.031
  3.033   3.034   3.039   3.040   3.043   3.052   3.055   3.056
  3.057   3.060   3.062   3.065   3.066   3.068   3.070   3.071
  3.075   3.080   3.085   3.087   3.089   3.100   3.101   3.113
  3.114   3.119   3.125   3.136   3.148   3.149   3.151   3.153
  3.157   3.161   3.165   3.167   3.180   3.181   3.183   3.188
  3.190   3.196   3.206   3.213   3.228   3.236   3.245   3.247
  3.250   3.253   3.261   3.269   3.272   3.279   3.283   3.292
  3.305   3.307   3.317   3.324   3.326   3.333   3.333   3.335
  3.343   3.345   3.348   3.355   3.361   3.365   3.375   3.395
  3.404   3.406   3.409   3.410   3.411   3.423   3.429   3.441
  3.452   3.456   3.469   3.476   3.479   3.492   3.499   3.499
  3.502   3.507   3.513   3.519   3.531   3.538   3.550   3.556
  3.561   3.578   3.582   3.583   3.590   3.592   3.600   3.616
  3.633   3.643   3.692   3.707   3.842   3.866   4.036   4.048
  4.068   4.073   4.083   4.084   4.093   4.096   4.098   4.100
  4.102   4.105   4.108   4.109   4.110   4.115   4.119   4.127
  4.134   4.137   4.138   4.139   4.142   4.146   4.148   4.151
  4.158   4.159   4.164   4.166   4.169   4.176   4.178   4.184
  4.187   4.189   4.195   4.198   4.205   4.218   4.238   4.243
  4.244   4.248   4.252   4.253   4.259   4.259   4.265   4.267
  4.273   4.278   4.281   4.284   4.288   4.292   4.296   4.299
  4.316   4.318   4.335   4.355   4.381   4.388   4.390   4.395
  4.398   4.403   4.405   4.409   4.412   4.414   4.416   4.418
  4.421   4.423   4.425   4.427   4.433   4.458   4.472   4.483
  4.484   4.493   4.502   4.507   4.533   4.541   4.543   4.552
  4.557   4.562   4.588   4.613   4.623   4.633   4.637   4.640
  4.646   4.652   4.682   4.684   4.694   4.696   4.698   4.703
  4.706   4.710   4.712   4.724   4.740   4.760   4.805   4.832
  4.845   4.854   4.859   4.865   4.876   4.883   4.885   4.896
  4.899   4.908   4.965   4.968   4.976   4.982   4.988   4.992
  4.995   5.004   5.007   5.015   5.160   5.174   5.186   5.196
  5.198   5.205   5.227   5.240   5.322   5.335   5.351   5.356
  5.386   5.396
 --------------------------------------------------------------
 
          Ground-State Mulliken Net Atomic Charges

     Atom                 Charge (a.u.)
  ----------------------------------------
      1 O                    -0.470954
      2 C                    -0.098579
      3 H                     0.134348
      4 H                     0.126082
      5 H                     0.123268
      6 O                    -0.426480
      7 C                     0.577731
      8 C                    -0.240477
      9 H                     0.119307
     10 H                     0.124070
     11 C                    -0.201693
     12 H                     0.130260
     13 H                     0.113435
     14 C                    -0.178148
     15 H                     0.116333
     16 H                     0.120594
     17 C                     0.006536
     18 C                     0.062080
     19 C                    -0.099580
     20 H                     0.095699
     21 C                    -0.090192
     22 H                     0.094350
     23 C                    -0.086813
     24 H                     0.088347
     25 C                    -0.089307
     26 H                     0.094467
     27 C                    -0.088703
     28 H                     0.093770
     29 C                    -0.041881
     30 C                     0.038995
     31 C                     0.013911
     32 C                     0.014990
     33 C                    -0.008873
     34 C                     0.008438
     35 C                    -0.006576
     36 C                    -0.001082
     37 C                     0.010862
     38 C                     0.008875
     39 C                    -0.071121
     40 C                    -0.007339
     41 C                     0.004553
     42 C                     0.019422
     43 C                     0.002691
     44 C                    -0.037875
     45 C                    -0.090805
     46 C                     0.040641
     47 C                     0.007411
     48 C                    -0.002786
     49 C                    -0.002708
     50 C                    -0.015272
     51 C                    -0.004285
     52 C                    -0.003754
     53 C                     0.003246
     54 C                     0.013750
     55 C                     0.002947
     56 C                    -0.020939
     57 C                     0.008070
     58 C                    -0.017373
     59 C                    -0.003188
     60 C                     0.045751
     61 C                    -0.005937
     62 C                    -0.010910
     63 C                     0.012865
     64 C                     0.005759
     65 C                    -0.042860
     66 C                    -0.034253
     67 C                    -0.036801
     68 C                    -0.030663
     69 C                    -0.001246
     70 C                     0.029206
     71 C                     0.001453
     72 C                    -0.031620
     73 C                     0.007783
     74 C                     0.033469
     75 C                     0.029863
     76 C                     0.001143
     77 C                     0.001985
     78 C                    -0.012258
     79 C                    -0.019521
     80 C                     0.003014
     81 C                    -0.004541
     82 C                    -0.011541
     83 C                    -0.018115
     84 C                    -0.006279
     85 C                     0.041122
     86 C                     0.003866
     87 C                     0.018757
     88 C                     0.016625
     89 O                    -0.446053
     90 C                    -0.088615
     91 H                     0.136150
     92 H                     0.119891
     93 H                     0.119052
     94 O                    -0.461306
     95 C                     0.572635
     96 C                    -0.242802
     97 H                     0.132804
     98 H                     0.127133
     99 C                    -0.192908
    100 H                     0.110487
    101 H                     0.118454
    102 C                    -0.174379
    103 H                     0.110898
    104 H                     0.107367
    105 C                     0.005030
    106 C                     0.073901
    107 C                    -0.105572
    108 H                     0.096653
    109 C                    -0.098990
    110 H                     0.088319
    111 C                    -0.069175
    112 H                     0.096995
    113 C                    -0.108611
    114 H                     0.087526
    115 C                    -0.086994
    116 H                     0.094166
    117 C                    -0.028298
    118 C                    -0.019250
    119 C                     0.019285
    120 C                     0.018729
    121 C                     0.023918
    122 C                     0.005711
    123 C                     0.014503
    124 C                     0.019464
    125 C                     0.004514
    126 C                    -0.012798
    127 C                    -0.105974
    128 C                    -0.007395
    129 C                    -0.017659
    130 C                    -0.011458
    131 C                     0.004010
    132 C                    -0.020525
    133 C                    -0.062811
    134 C                     0.032300
    135 C                    -0.028993
    136 C                    -0.028320
    137 C                    -0.016062
    138 C                    -0.006215
    139 C                     0.003436
    140 C                     0.015851
    141 C                     0.031829
    142 C                    -0.035206
    143 C                     0.027758
    144 C                     0.020558
    145 C                    -0.016334
    146 C                    -0.038271
    147 C                    -0.008147
    148 C                     0.037229
    149 C                     0.009077
    150 C                    -0.000360
    151 C                     0.009974
    152 C                    -0.002293
    153 C                    -0.027496
    154 C                    -0.010057
    155 C                    -0.004146
    156 C                    -0.012685
    157 C                     0.004394
    158 C                     0.027343
    159 C                    -0.024795
    160 C                    -0.018988
    161 C                    -0.004928
    162 C                     0.005399
    163 C                     0.009875
    164 C                     0.011449
    165 C                     0.012357
    166 C                     0.003192
    167 C                     0.003972
    168 C                     0.006539
    169 C                    -0.004400
    170 C                     0.046334
    171 C                     0.012268
    172 C                     0.025387
    173 C                     0.011551
    174 C                    -0.027059
    175 C                     0.006986
    176 C                    -0.005140
  ----------------------------------------
  Sum of atomic charges =     0.000000

 -----------------------------------------------------------------
                    Cartesian Multipole Moments
 -----------------------------------------------------------------
    Charge (ESU x 10^10)
                 0.0000
    Dipole Moment (Debye)
         X       2.2593      Y       0.5402      Z       2.2802
       Tot       3.2551
    Quadrupole Moments (Debye-Ang)
        XX    -839.9068     XY      31.9202     YY    -779.4368
        XZ      -9.5688     YZ      -5.6152     ZZ    -798.3840
    Octopole Moments (Debye-Ang^2)
       XXX     334.9481    XXY     156.6949    XYY     133.8261
       YYY      43.9171    XXZ     -92.1691    XYZ      84.6558
       YYZ     219.9997    XZZ    -157.8986    YZZ     -63.9531
       ZZZ     308.5912
    Hexadecapole Moments (Debye-Ang^3)
      XXXX -156954.5711   XXXY    2172.7500   XXYY  -31014.4994
      XYYY    4195.0716   YYYY  -44596.8064   XXXZ   -1900.6871
      XXYZ    -520.7328   XYYZ     198.9815   YYYZ      48.4035
      XXZZ  -30909.4153   XYZZ    1559.3937   YYZZ  -11734.0557
      XZZZ    -869.9668   YZZZ    -442.4865   ZZZZ  -30036.1419
 -----------------------------------------------------------------
Archival summary:
1\1\mn366\SP\ProcedureUnspecified\6-31G**\428\afmv_a\SatOct620:35:482018SatOct620:35:482018\0\\#,ProcedureUnspecified,6-31G**,\\0,1\C\C,1,1.3854\C,1,1.38574,2,107.254\C,3,1.37767,1,109.13,2,5.59585,0\C,4,1.38519,3,124.81,1,140.196,0\C,2,1.38729,1,119.188,3,-148.634,0\C,2,1.38752,1,108.644,3,-5.35637,0\C,5,1.39971,4,120.965,3,-140.52,0\C,8,1.36384,5,121.758,4,-2.5934,0\C,9,1.39862,8,121.91,5,138.724,0\C,10,1.37807,9,107.255,8,-140.106,0\C,1,1.40435,2,122.988,3,148.631,0\C,12,1.39516,1,117.315,2,-6.10164,0\C,13,1.37148,12,111.377,1,-141.037,0\C,14,1.37548,13,106.9,12,4.41891,0\C,8,1.40713,5,107.162,4,139.206,0\C,16,1.37229,8,106.017,5,-0.00827894,0\C,17,1.3522,16,112.589,8,-1.22289,0\C,10,1.40973,9,118.576,8,-0.953868,0\C,19,1.37408,10,120.922,9,-132.228,0\C,20,1.38985,19,119.853,10,-4.20933,0\C,21,1.37876,20,118.681,19,139.545,0\C,22,1.37364,21,112.282,20,-144.733,0\C,23,1.37955,22,119.1,21,143.845,0\C,21,1.38257,20,121.148,19,3.65487,0\C,24,1.39534,23,118.791,22,-135.486,0\C,26,1.3958,24,107.232,23,143.435,0\C,20,1.39582,19,109.587,10,142.513,0\C,28,1.36267,20,111.453,19,-1.28786,0\C,27,1.39917,26,108.467,24,2.48413,0\C,30,1.36798,27,108.172,26,-2.46923,0\C,31,1.38852,30,123.486,27,-143.991,0\C,30,1.38958,27,118.264,26,-147.768,0\C,33,1.38738,30,122.574,27,6.91382,0\C,34,1.39231,33,112.952,30,136.928,0\C,35,1.38238,34,103.14,33,-4.55688,0\C,36,1.39987,35,122.466,34,-145.315,0\C,37,1.3628,36,125.185,35,140.22,0\C,38,1.38204,37,113.868,36,-144.523,0\C,38,1.38643,37,118.096,36,8.76995,0\C,39,1.39424,38,103.815,37,8.9691,0\C,40,1.40038,38,119.345,37,-135.89,0\C,42,1.39963,40,111.183,38,134.169,0\C,32,1.40224,31,119.627,30,1.75374,0\C,19,1.40982,10,122.058,9,3.51409,0\C,13,1.41275,12,121.083,1,4.57045,0\C,7,1.41548,2,123.839,1,-148.389,0\C,46,1.41689,13,125.243,12,-144.627,0\C,48,1.38806,46,109.421,13,146.035,0\C,49,1.41383,48,119.854,46,-134.121,0\C,12,1.41799,1,121.309,2,-138.327,0\C,37,1.41891,36,114.559,35,7.53283,0\C,52,1.38507,37,122.05,36,-6.11855,0\C,53,1.35673,52,116.925,37,142.802,0\C,53,1.37538,52,123.349,37,2.9712,0\C,55,1.35781,53,108.25,52,140.441,0\C,54,1.38927,53,108.649,52,-144.76,0\C,36,1.42432,35,113.397,34,5.50476,0\C,6,1.43725,2,120.356,1,147.002,0\C,47,1.44164,7,118.713,2,-1.73076,0\C,60,1.50786,47,129.041,7,-66.7407,0\C,61,1.51634,60,120.827,47,-147.541,0\H,62,1.09652,61,104.74,60,-167.821,0\H,62,1.09759,61,109.806,60,-51.8765,0\C,61,1.51898,60,118.477,47,-8.25613,0\C,65,1.37024,61,116.514,60,-47.4212,0\H,66,1.08574,65,120.417,61,-17.0427,0\C,66,1.40327,65,118.824,61,179.652,0\H,68,1.08549,66,121.989,65,-179.919,0\C,65,1.41061,61,121.116,60,119.772,0\H,70,1.08548,65,120.114,61,10.1005,0\C,68,1.42756,66,121.532,65,0.885589,0\H,72,1.08623,68,124.821,66,179.586,0\C,72,1.3747,68,116.979,66,-3.27841,0\H,74,1.08544,72,119.345,68,-175.885,0\C,62,1.5539,61,114.372,60,71.0958,0\H,76,1.09691,62,105.486,61,-52.4416,0\H,76,1.09698,62,109.833,61,52.7915,0\C,76,1.51931,62,110.599,61,-178.528,0\H,79,1.09666,76,114.192,62,49.0737,0\H,79,1.0972,76,109.181,62,-66.8516,0\C,79,1.51439,76,117.495,62,174.034,0\O,82,1.19372,79,124.239,76,-105.452,0\O,82,1.33657,79,113.24,76,80.9527,0\C,84,1.43142,82,116.69,79,-178.889,0\H,85,1.09686,84,110.932,82,172.504,0\H,85,1.09706,84,112.423,82,64.3899,0\H,85,1.0972,84,111.303,82,-55.7326,0\C,75,3.07553,74,119.365,72,90.2091,0\C,89,1.37383,75,103.68,74,10.606,0\C,90,1.35689,89,118.617,75,-130.229,0\C,91,1.38728,90,124.013,89,1.21972,0\C,92,1.38937,91,125.053,90,-142.254,0\C,93,1.39633,92,118.239,91,-1.38887,0\C,89,1.42201,75,88.7349,74,129.43,0\C,95,1.38521,89,108.706,75,112.927,0\C,96,1.39547,95,108.562,89,4.53353,0\C,97,1.37925,96,107.996,95,-2.203,0\C,98,1.3499,97,119.769,96,143.73,0\C,99,1.37283,98,120.318,97,3.70771,0\C,97,1.39652,96,122.846,95,146.38,0\C,101,1.37464,97,120.149,96,-139.536,0\C,102,1.39117,101,109.711,97,138.117,0\C,96,1.4018,95,120.87,89,144.734,0\C,103,1.40539,102,107.518,101,0.63982,0\C,105,1.41051,103,108.088,102,-0.654713,0\C,106,1.38381,105,118.506,103,-141.529,0\C,107,1.39888,106,122.683,105,1.26104,0\C,108,1.3777,107,107.08,106,142.696,0\C,109,1.38317,108,118.014,107,-146.858,0\C,108,1.39348,107,119.425,106,-5.55246,0\C,109,1.39416,108,112.444,107,-1.52921,0\C,110,1.3997,109,121.657,108,0.646195,0\C,113,1.40252,110,118.159,109,2.06116,0\C,113,1.40733,110,107.577,109,136.285,0\C,115,1.36481,113,123.707,110,-134.863,0\C,116,1.33721,115,124.619,113,144.407,0\C,117,1.37348,116,112.329,115,-148.868,0\C,117,1.38638,116,117.528,115,-5.31084,0\C,118,1.39515,117,124.353,116,141.084,0\C,116,1.39596,115,122.243,113,-2.84871,0\C,121,1.35348,116,108.724,115,148.026,0\C,120,1.40257,118,115.34,117,-3.48305,0\C,123,1.38237,120,121.646,118,3.6143,0\C,124,1.37206,123,123.566,120,-144.618,0\C,125,1.39953,124,122.188,123,1.41649,0\C,125,1.40263,124,108.476,123,147.085,0\C,127,1.39633,125,118.84,124,-145.741,0\C,128,1.38485,127,113.239,125,140.855,0\C,128,1.39081,127,121.085,125,2.60594,0\C,130,1.40362,128,121.497,127,-1.63993,0\C,127,1.40641,125,108.632,124,3.50233,0\C,132,1.35466,127,120.707,125,-141.862,0\C,133,1.37652,132,119.051,127,-2.66417,0\C,126,1.40729,125,115.788,124,3.86665,0\C,130,1.41107,128,106.434,127,136.671,0\C,136,1.39147,130,106.622,128,0.570251,0\C,100,1.41578,99,109.15,98,-144.568,0\C,138,1.38199,100,124.216,99,140.089,0\C,105,1.41824,103,121.168,102,-147.458,0\C,103,1.42127,102,119.531,101,-139.721,0\C,141,1.42122,103,121.719,102,137.686,0\C,142,1.39507,141,116.597,103,-0.96361,0\C,143,1.3777,142,118.12,141,-138.014,0\C,142,1.42075,141,108.593,103,-150.451,0\C,123,1.42134,120,110.329,118,-137.545,0\C,139,1.4889,138,124.39,100,-148.052,0\C,94,1.49322,93,122.989,92,145.793,0\C,147,1.54455,139,128.159,138,-61.0171,0\C,149,1.49992,147,116.511,139,-155.31,0\C,150,1.406,149,118.908,147,-123.042,0\H,151,1.08673,150,120.019,149,3.42787,0\C,151,1.36027,150,120.241,149,-178.881,0\H,153,1.08603,151,122.018,150,-175.228,0\C,153,1.40963,151,119.445,150,2.15358,0\H,155,1.08612,153,122.71,151,170.1,0\C,155,1.39673,153,120.752,151,8.39538,0\H,157,1.0861,155,121.608,153,177.498,0\C,157,1.37786,155,118.754,153,-11.897,0\H,159,1.08608,157,118.684,155,-158.66,0\C,149,1.58256,147,119.129,139,-7.98442,0\H,161,1.09651,149,105.914,147,111.022,0\H,161,1.09714,149,113.247,147,-10.3862,0\C,161,1.53475,149,112.708,147,-132.207,0\H,164,1.09635,161,108.619,149,-53.3885,0\H,164,1.09652,161,117.337,149,60.9464,0\C,164,1.49166,161,110.178,149,-178.003,0\H,167,1.09706,164,115.064,161,40.8527,0\H,167,1.09764,164,106.091,161,-81.6533,0\C,167,1.50074,164,111.291,161,160.719,0\O,170,1.15404,167,123.262,164,112.818,0\O,170,1.35999,167,108.871,164,-69.6739,0\C,172,1.46042,170,116.544,167,-174.889,0\H,173,1.09636,172,110.312,170,-155.593,0\H,173,1.09726,172,113.342,170,81.1694,0\H,173,1.09728,172,111.327,170,-39.6831,0\\\@

 Total job time:  858.94s(wall), 7288.33s(cpu) 
 Sat Oct  6 20:35:48 2018

        *************************************************************
        *                                                           *
        *  Thank you very much for using Q-Chem.  Have a nice day.  *
        *                                                           *
        *************************************************************


