
Running Job 1 of 1 ./9/1.qcin
qchem ./9/1.qcin_23156.0 /tmpu/cab_g/afmv_a/scratch_qchem/qchem23156/ 1
/tmpu/appuserlic/qchem4.4/serial-multicore/exe/qcprog.exe_s ./9/1.qcin_23156.0 /tmpu/cab_g/afmv_a/scratch_qchem/qchem23156/
Check license passed

                  Welcome to Q-Chem
     A Quantum Leap Into The Future Of Chemistry


 Q-Chem 4.4, Q-Chem, Inc., Pleasanton, CA (2016)

 Y. Shao,  Z. Gan,  E. Epifanovsky,  A. T. B. Gilbert,  M. Wormit,  
 J. Kussmann,  A. W. Lange,  A. Behn,  J. Deng,  X. Feng,  D. Ghosh,  
 M. Goldey,  P. R. Horn,  L. D. Jacobson,  I. Kaliman,  F. Rob,  
 R. Z. Khaliullin,  T. Kus,  A. Landau,  J. Liu,  E. I. Proynov,  Y. M. Rhee,  
 R. M. Richard,  M. A. Rohrdanz,  R. P. Steele,  E. J. Sundstrom,  
 H. L. Woodcock III,  P. M. Zimmerman,  D. Zuev,  B. Albrecht,  E. Alguire,  
 B. Austin,  S. A. Baeppler,  G. J. O. Beran,  Y. A. Bernard,  E. Berquist,  
 K. Brandhorst,  K. B. Bravaya,  S. T. Brown,  D. Casanova,  C.-M. Chang,  
 Y. Chen,  S. H. Chien,  K. D. Closser,  M. P. Coons,  D. L. Crittenden,  
 S. Dasgupta,  M. Diedenhofen,  R. A. DiStasio Jr.,  H. Do,  A. D. Dutoi,  
 R. G. Edgar,  P.-T. Fang,  S. Fatehi,  Q. Feng,  L. Fusti-Molnar,  
 A. Ghysels,  A. Golubeva-Zadorozhnaya,  J. Gomes,  A. Gunina,  
 M. W. D. Hanson-Heine,  P. H. P. Harbach,  A. W. Hauser,  J. E. Herr,  
 E. G. Hohenstein,  Z. C. Holden,  K. Hui,  T.-C. Jagau,  H. Ji,  B. Kaduk,  
 K. Khistyaev,  Jaehoon Kim,  Jihan Kim,  R. A. King,  P. Klunzinger,  
 K. Koh,  D. Kosenkov,  T. Kowalczyk,  C. M. Krauter,  A. Kunitsa,  
 K. U. Lao,  A. Laurent,  K. V. Lawler,  J. Lee,  D. Lefrancois,  S. Lehtola,  
 S. V. Levchenko,  C. Y. Lin,  Y.-S. Lin,  F. Liu,  E. Livshits,  
 R. C. Lochan,  A. Luenser,  P. Manohar,  S. F. Manzer,  S.-P. Mao,  Y. Mao,  
 N. Mardirossian,  A. V. Marenich,  L. A. Martinez-Martinez,  S. A. Maurer,  
 N. J. Mayhall,  J.-M. Mewes,  A. F. Morrison,  K. Nanda,  T. S. Nguyen-Beck,  
 C. M. Oana,  R. Olivares-Amaya,  D. P. O'Neill,  J. A. Parkhill,  
 T. M. Perrine,  R. Peverati,  P. A. Pieniazek,  F. Plasser,  A. Prociuk,  
 D. R. Rehn,  E. Rosta,  N. J. Russ,  N. Sergueev,  S. M. Sharada,  
 S. Sharma,  D. W. Small,  A. Sodt,  T. Stauch,  T. Stein,  D. Stuck,  
 Y.-C. Su,  A. J. W. Thom,  T. Tsuchimochi,  L. Vogt,  O. Vydrov,  T. Wang,  
 M. A. Watson,  J. Wenzel,  A. White,  C. F. Williams,  V. Vanovschi,  
 K. Yao,  S. Yeganeh,  S. R. Yost,  Z.-Q. You,  I. Y. Zhang,  X. Zhang,  
 Y. Zhao,  B. R. Brooks,  G. K. L. Chan,  D. M. Chipman,  C. J. Cramer,  
 W. A. Goddard III,  M. S. Gordon,  W. J. Hehre,  A. Klamt,  
 H. F. Schaefer III,  M. W. Schmidt,  C. D. Sherrill,  D. G. Truhlar,  
 A. Warshel,  X. Xu,  A. Aspuru-Guzik,  R. Baer,  A. T. Bell,  N. A. Besley,  
 J.-D. Chai,  A. Dreuw,  B. D. Dunietz,  T. R. Furlani,  S. R. Gwaltney,  
 C.-P. Hsu,  Y. Jung,  J. Kong,  D. S. Lambrecht,  W. Liang,  C. Ochsenfeld,  
 V. A. Rassolov,  L. V. Slipchenko,  J. E. Subotnik,  T. Van Voorhis,  
 J. M. Herbert,  A. I. Krylov,  P. M. W. Gill,  M. Head-Gordon

 Contributors to earlier versions of Q-Chem not listed above: 
 R. D. Adamson,  J. Baker,  E. F. C. Byrd,  A. K. Chakraborty,  C.-L. Cheng,  
 H. Dachsel,  R. J. Doerksen,  G. Hawkins,  A. Heyden,  S. Hirata,  
 G. Kedziora,  F. J. Keil,  C. Kelley,  P. P. Korambath,  W. Kurlancheek,  
 A. M. Lee,  M. S. Lee,  D. Liotard,  I. Lotan,  P. E. Maslen,  N. Nair,  
 D. Neuhauser,  R. Olson,  B. Peters,  J. Ritchie,  N. E. Schultz,  
 N. Shenvi,  A. C. Simmonett,  K. S. Thanthiriwatte,  Q. Wu,  W. Zhang

 Please cite Q-Chem as follows:
 Y. Shao et al., Mol. Phys. 113, 184-215 (2015)
 DOI: 10.1080/00268976.2014.952696

 Q-Chem 4.4.2 for Intel X86 Linux

 Parts of Q-Chem use Armadillo 5.200.1 (Boston Tea Smuggler).
 http://arma.sourceforge.net/

 Q-Chem begins on Sat Oct  6 01:08:32 2018  

Host: 
0

     Scratch files written to /tmpu/cab_g/afmv_a/scratch_qchem/qchem23156//
 Dec716 11556_ 22328  22283 4050   
Processing $rem in /tmpu/appuserlic/qchem4.4/serial-multicore/config/preferences.
 MEM_TOTAL  2000 
FILE_GEOM_ORG=        593

Checking the input file for inconsistencies... 	...done.

--------------------------------------------------------------
User input:
--------------------------------------------------------------
$comment
SP
$end

$rem
MEM_STATIC 5000
MEM_TOTAL 20000
JOBTYPE SP
EXCHANGE B3LYP
BASIS 6-31g(d,p)
$end

$molecule
0 1
C          25.495000     -9.059000     -1.841000
C          24.974000     -7.779000     -2.202000
N          25.087000     -9.671000     -0.747000
C          24.078000     -7.074000     -1.368000
C          24.238000     -8.954000      0.065000
C          23.664000     -7.715000     -0.224000
C          22.789000     -7.080000      0.820000
C          23.270000     -6.668000      2.079000
C          21.415000     -6.815000      0.575000
N          22.448000     -6.214000      3.048000
N          20.782000     -7.306000     -0.535000
C          20.638000     -6.209000      1.517000
C          21.185000     -5.868000      2.813000
S          19.300000     -6.790000     -0.290000
N          19.315000     -6.212000      1.216000
C          20.331000     -5.662000      3.956000
S          18.555000     -5.768000      3.977000
C          20.745000     -5.213000      5.224000
C          18.489000     -5.626000      5.753000
S          22.318000     -4.540000      5.770000
C          19.735000     -5.209000      6.146000
C          17.363000     -5.792000      6.663000
C          21.570000     -4.410000      7.399000
C          20.214000     -4.753000      7.425000
N          16.236000     -6.038000      6.052000
S          17.474000     -6.133000      8.369000
C          15.215000     -6.332000      6.932000
C          15.726000     -6.367000      8.230000
C          26.530000     -9.823000     -2.627000
H          25.363000     -7.364000     -3.127000
H          23.566000     -6.159000     -1.648000
H          23.945000     -9.516000      0.951000
H          24.297000     -6.936000      2.322000
H          22.116000     -3.878000      8.167000
H          19.613000     -4.603000      8.315000
H          14.209000     -6.524000      6.583000
H          15.298000     -6.565000      9.204000
H          26.684000    -10.834000     -2.230000
C          27.869000     -9.039000     -2.712000
H          26.200000     -9.896000     -3.671000
H          28.202000     -8.832000     -1.687000
H          27.688000     -8.002000     -3.021000
C          29.000000     -9.671000     -3.441000
H          29.164000    -10.706000     -3.113000
C          30.249000     -8.753000     -3.275000
H          28.785000     -9.719000     -4.515000
H          30.467000     -8.730000     -2.200000
H          30.070000     -7.722000     -3.602000
C          31.627000     -9.241000     -3.954000
H          31.899000    -10.278000     -3.721000
C          32.786000     -8.324000     -3.647000
H          31.500000     -9.175000     -5.042000
H          32.903000     -8.251000     -2.559000
H          32.674000     -7.296000     -4.013000
H          33.617000     -8.747000     -4.225000
C          20.290000     -7.530000     12.739000
C          20.762000     -6.371000     12.092000
N          20.978000     -8.661000     12.693000
C          21.895000     -6.482000     11.297000
C          22.067000     -8.785000     11.865000
C          22.576000     -7.713000     11.112000
C          23.698000     -7.901000     10.148000
C          23.796000     -6.941000      9.067000
C          24.745000     -8.863000     10.230000
N          24.741000     -7.011000      8.102000
N          24.833000     -9.725000     11.200000
C          25.745000     -8.798000      9.265000
C          25.706000     -7.904000      8.159000
S          26.260000    -10.487000     10.869000
N          26.696000     -9.724000      9.469000
C          26.876000     -7.662000      7.269000
S          28.533000     -8.439000      7.385000
C          26.905000     -6.590000      6.382000
C          29.072000     -7.360000      6.100000
S          25.669000     -5.444000      5.806000
C          28.113000     -6.469000      5.726000
C          30.444000     -7.309000      5.602000
C          26.837000     -4.792000      4.746000
C          28.049000     -5.432000      4.768000
N          31.301000     -7.921000      6.371000
S          31.068000     -6.534000      4.136000
C          32.515000     -7.857000      5.800000
C          32.602000     -7.325000      4.561000
C          19.160000     -7.476000     13.741000
H          20.223000     -5.433000     12.189000
H          22.385000     -5.597000     10.901000
H          22.465000     -9.792000     11.752000
H          22.988000     -6.226000      8.918000
H          26.545000     -3.982000      4.090000
H          28.886000     -5.126000      4.151000
H          33.306000     -8.390000      6.310000
H          33.507000     -7.012000      4.057000
H          18.313000     -6.930000     13.307000
C          19.594000     -6.832000     15.040000
H          18.769000     -8.491000     13.881000
H          20.239000     -5.954000     14.909000
H          20.227000     -7.548000     15.578000
C          18.361000     -6.386000     15.844000
H          17.694000     -5.823000     15.180000
C          18.633000     -5.641000     17.149000
H          17.746000     -7.267000     16.063000
H          19.209000     -6.342000     17.766000
H          17.739000     -5.538000     17.776000
C          19.368000     -4.308000     17.041000
H          20.239000     -4.409000     16.382000
C          19.764000     -4.051000     18.527000
H          18.725000     -3.491000     16.692000
H          20.248000     -3.077000     18.675000
H          20.556000     -4.745000     18.835000
H          18.934000     -4.206000     19.227000
$end

--------------------------------------------------------------
 ----------------------------------------------------------------
             Standard Nuclear Orientation (Angstroms)
    I     Atom           X                Y                Z
 ----------------------------------------------------------------
    1      C      -7.6610851374     2.3765385526     1.5055448233
    2      C      -7.5482280573     3.1813711109     0.3309513478
    3      N      -6.5922567213     2.0406107295     2.2002406665
    4      C      -6.2948476248     3.5735220856    -0.1892910038
    5      C      -5.3808948345     2.4072503087     1.6594895238
    6      C      -5.1839634528     3.2115934040     0.5359379158
    7      C      -3.7726201867     3.4633445397     0.0848087205
    8      C      -2.9211468837     2.4419140300    -0.3819448849
    9      C      -3.2238536444     4.7734772891     0.0617119482
   10      N      -1.6209626479     2.6650072960    -0.6656901010
   11      N      -3.8783408321     5.8298567219     0.6358016758
   12      C      -1.9533534045     4.9948185023    -0.3800642481
   13      C      -1.1134440653     3.8887728820    -0.7878894409
   14      S      -2.8322343750     7.0002169840     0.3938861180
   15      N      -1.5083179807     6.2556509965    -0.1494479149
   16      C       0.3226966151     4.0102370041    -0.8186695166
   17      S       1.2666926378     5.4594087061    -0.4007868931
   18      C       1.2212280323     3.0447319751    -1.3098541371
   19      C       2.8124705353     4.5760864759    -0.4957001654
   20      S       0.9245327379     1.5369618200    -2.2393567255
   21      C       2.5313585703     3.3869681502    -1.1184582813
   22      C       4.1549603842     4.9975877329    -0.1167678551
   23      C       2.7054410420     1.2977409009    -2.2049479469
   24      C       3.4055937268     2.3625102249    -1.6277880863
   25      N       4.2086027971     6.2291299603     0.3126413133
   26      S       5.4948856327     3.9380619085     0.2311450014
   27      C       5.4562169690     6.5618566577     0.7984692900
   28      C       6.2752289921     5.4325278959     0.7670709792
   29      C      -8.9539980799     1.8348674959     2.0602389637
   30      H      -8.4865338759     3.4146359563    -0.1633569595
   31      H      -6.1589290702     4.2766120347    -1.0047415971
   32      H      -4.5423900725     2.0949072774     2.2808111754
   33      H      -3.2886516374     1.4206704561    -0.2947450063
   34      H       3.1224865047     0.5037530368    -2.8104397750
   35      H       4.4889105529     2.4025125338    -1.6527974757
   36      H       5.6725008136     7.5590765816     1.1582952506
   37      H       7.2993925829     5.2353033270     1.0556111126
   38      H      -8.8129473865     1.3527370306     3.0354829928
   39      C      -9.6460574874     0.8771531112     1.0509625229
   40      H      -9.6667159353     2.6619007324     2.1707572172
   41      H      -8.9360962851     0.0764450060     0.8076836265
   42      H      -9.6958841688     1.3378538951     0.0565365128
   43      C     -10.9270846274     0.2432941709     1.4598858781
   44      H     -10.8520616372    -0.2132558219     2.4556964298
   45      C     -11.3454679949    -0.7564619532     0.3392949403
   46      H     -11.7230341080     0.9944497097     1.5249610733
   47      H     -10.5530268060    -1.5141132342     0.2983132551
   48      H     -11.4121689364    -0.2885462540    -0.6499152916
   49      C     -12.6989298422    -1.6024947119     0.5638803342
   50      H     -12.7611514596    -2.0977943375     1.5408392644
   51      C     -12.9511804020    -2.6036766245    -0.5372206753
   52      H     -13.5405340716    -0.9010852421     0.5009829833
   53      H     -12.0889173464    -3.2775169184    -0.6093572218
   54      H     -13.0864350770    -2.1707951803    -1.5360218708
   55      H     -13.9235070454    -3.0408213095    -0.2782623333
   56      C       7.5320843067    -0.9513760328     1.1911362415
   57      C       6.8662931475    -0.8338770304    -0.0448209248
   58      N       7.0048528397    -1.6547730321     2.1820351474
   59      C       5.5862807432    -1.3616010893    -0.1502275777
   60      C       5.7188594823    -2.1299538655     2.0965643328
   61      C       4.9346601879    -1.9980772804     0.9377226555
   62      C       3.5096588951    -2.4361912178     0.9068763697
   63      C       2.6540080001    -1.8015546008    -0.0753979862
   64      C       2.9192705153    -3.4833937993     1.6705420782
   65      N       1.3347060637    -2.0757561814    -0.1911818099
   66      N       3.5940712627    -4.1990814088     2.5214963643
   67      C       1.5858533869    -3.7845710495     1.4121992330
   68      C       0.7742139945    -3.0318026144     0.5185694552
   69      S       2.4773973271    -5.3114676159     3.0136043280
   70      N       1.1528640053    -4.8128411632     2.1596440595
   71      C      -0.5662701072    -3.4901053259     0.0574566731
   72      S      -1.4297561657    -5.0366870903     0.5321256870
   73      C      -1.2097585957    -2.8872614386    -1.0192493279
   74      C      -2.6769156541    -4.6418439623    -0.6488396448
   75      S      -0.9150866756    -1.3911506755    -1.9399061826
   76      C      -2.3866952852    -3.5200958254    -1.3636062183
   77      C      -3.8151974884    -5.5058129842    -0.9502712206
   78      C      -2.3522801515    -1.6992899707    -2.8073467207
   79      C      -3.0447099166    -2.8065630402    -2.3907949591
   80      N      -3.6881296948    -6.7172021923    -0.4847135309
   81      S      -5.2932658033    -5.1260859903    -1.8504259110
   82      C      -4.8029798911    -7.4087612203    -0.7724428318
   83      C      -5.8331886358    -6.7390893329    -1.3345135621
   84      C       8.9784791833    -0.5456810803     1.3559800049
   85      H       7.3364121010    -0.3084943200    -0.8710988303
   86      H       5.0919869666    -1.4323927326    -1.1150090067
   87      H       5.3021099349    -2.5391518394     3.0153128473
   88      H       3.0344302461    -0.9509667747    -0.6393742842
   89      H      -2.6607296395    -0.9907061494    -3.5652833154
   90      H      -3.9723930415    -3.1266316983    -2.8510710436
   91      H      -4.8503642826    -8.4146989018    -0.3778365719
   92      H      -6.7008790471    -7.1756128081    -1.8115571718
   93      H       9.1208638160     0.4675851967     0.9598751346
   94      C       9.9141179959    -1.5174937641     0.6699383735
   95      H       9.1905763454    -0.4370724070     2.4264588463
   96      H       9.5602851163    -1.8609203681    -0.3103322324
   97      H       9.9535140972    -2.4326543231     1.2730288298
   98      C      11.2915849952    -0.8651361230     0.4634555074
   99      H      11.1471420567     0.1250161261     0.0145805122
  100      C      12.3290131402    -1.6916268989    -0.2933072304
  101      H      11.7033276283    -0.5945036172     1.4430335038
  102      H      12.4666846039    -2.5999690171     0.3065487226
  103      H      13.3404674867    -1.2729256840    -0.2253116594
  104      C      11.9973429171    -2.0591588732    -1.7368075286
  105      H      10.9713171894    -2.4412205318    -1.8033138829
  106      C      13.0676748446    -3.1538909886    -2.0317857659
  107      H      12.1335203972    -1.2236256546    -2.4340011419
  108      H      13.0443879007    -3.5007520024    -3.0729299227
  109      H      12.8318882258    -4.0740295741    -1.4826831765
  110      H      14.0782427605    -2.8634738437    -1.7197995975
 ----------------------------------------------------------------
 Molecular Point Group                 C1    NOp =  1
 Largest Abelian Subgroup              C1    NOp =  1
 Nuclear Repulsion Energy = 11438.0645427646 hartrees
 There are      270 alpha and      270 beta electrons
 Requested basis set is 6-31G(d,p)
 There are 406 shells and 1262 basis functions

 Total QAlloc Memory Limit  20000 MB
 Mega-Array Size      4888 MB
 MEM_STATIC part      5000 MB
 A cutoff of  1.0D-08 yielded  12912 shell pairs
 There are    135072 function pairs
 
 -------------------------------------------------------
 OpenMP Integral Computing Module                       
 Release: version 1.0, May 2013, Q-Chem Inc. Pittsburgh 
 -------------------------------------------------------
 Integral Job Info:
 Integral job number is                      11
 Integral operator is                         1
 short-range coefficients                     0
 long-range coefficients              100000000
 Omega coefficients                           0
 if combine SR and LR in K                    0
 Integral screening is                        0
 Integral computing path is                   2
 max size of driver memory is            800000
 size of driver memory is                593474
 size of scratch memory is             15166112
 max col of scratch BK array               1296
 max len of scratch array in speh3          155
 max len of scratch index in speh4           18
 max int batch size is                      520
 min int batch size is                       52
 fixed nKL is                                52
 max L of basis functions is                  2
 order of int derivative is                   0
 number of shells is                        406
 number of basis is                        1262
 number of cartesian basis is              1262
 number of contracted shell pairs         12912
 number of primitive shell pairs          42125
 maxK2 (contraction) of shell pair           36
 max number of K2 of shell pair               1
 max number of CS2 of shell pair           1301
 max number of PS2 of shell pair           7806
 mem total for path MDJ                  277672
 -------------------------------------------------------
 Smallest overlap matrix eigenvalue = 4.30E-04

 Scale SEOQF with 1.000000e-02/1.000000e-02/1.000000e-01

 Standard Electronic Orientation quadrupole field applied
 Nucleus-field energy     =     0.0000000170 hartrees
 Guess from superposition of atomic densities
 Warning:  Energy on first SCF cycle will be non-variational
 A restricted hybrid HF-DFT SCF calculation will be
 performed using Pulay DIIS extrapolation
 Exchange:     0.2000 Hartree-Fock + 0.0800 Slater + 0.7200 B88
 Correlation:  0.1900 VWN1RPA + 0.8100 LYP
 Using SG-1 standard quadrature grid
 SCF converges when DIIS error is below 1.0E-05
 using 16 threads for integral computing 
 -------------------------------------------------------
 OpenMP BLAS3 based DFT computing Module                
 Release: version 1.0, May 2013, Q-Chem Inc. Pittsburgh 
 -------------------------------------------------------
 ---------------------------------------
  Cycle       Energy         DIIS Error
 ---------------------------------------
    1   -5680.5080027517      2.16E-02
    2   -5662.5163115522      2.13E-03
    3   -5661.2612635338      3.18E-03
    4   -5663.3692438504      7.98E-04
    5   -5663.4803192644      3.71E-04
    6   -5663.4988345879      2.23E-04
    7   -5663.5080532980      6.41E-05
    8   -5663.5087513313      2.48E-05
    9   -5663.5088619579      9.38E-06 Convergence criterion met
 ---------------------------------------
 SCF time:  CPU 918.43 s  wall 83.39 s
 SCF   energy in the final basis set = -5663.5088619579
 Total energy in the final basis set = -5663.5088619579
 
 --------------------------------------------------------------
 
                    Orbital Energies (a.u.)
 --------------------------------------------------------------
 
 Alpha MOs
 -- Occupied --
-88.986 -88.983 -88.932 -88.927 -88.925 -88.922 -88.912 -88.909
-14.390 -14.387 -14.384 -14.382 -14.346 -14.345 -14.341 -14.336
-14.326 -14.323 -10.268 -10.267 -10.261 -10.259 -10.252 -10.251
-10.251 -10.250 -10.242 -10.239 -10.239 -10.238 -10.237 -10.237
-10.236 -10.234 -10.232 -10.230 -10.227 -10.226 -10.224 -10.224
-10.224 -10.222 -10.221 -10.221 -10.220 -10.220 -10.213 -10.212
-10.211 -10.209 -10.209 -10.204 -10.202 -10.200 -10.199 -10.197
-10.184 -10.183 -10.183 -10.183 -10.182 -10.180 -10.180 -10.179
-10.177 -10.176 -10.174 -10.172  -8.043  -8.038  -7.993  -7.988
 -7.982  -7.980  -7.971  -7.968  -6.008  -6.004  -6.002  -6.001
 -5.998  -5.996  -5.957  -5.954  -5.952  -5.950  -5.949  -5.947
 -5.944  -5.944  -5.943  -5.941  -5.939  -5.937  -5.936  -5.933
 -5.932  -5.929  -5.927  -5.924  -1.053  -1.043  -0.979  -0.973
 -0.960  -0.958  -0.938  -0.934  -0.915  -0.914  -0.910  -0.908
 -0.845  -0.838  -0.836  -0.830  -0.811  -0.808  -0.808  -0.804
 -0.804  -0.802  -0.798  -0.792  -0.786  -0.778  -0.768  -0.765
 -0.752  -0.750  -0.741  -0.740  -0.725  -0.721  -0.713  -0.709
 -0.693  -0.692  -0.672  -0.668  -0.653  -0.650  -0.644  -0.643
 -0.635  -0.634  -0.632  -0.622  -0.613  -0.609  -0.605  -0.602
 -0.599  -0.593  -0.587  -0.582  -0.577  -0.575  -0.573  -0.570
 -0.547  -0.541  -0.539  -0.538  -0.526  -0.523  -0.521  -0.516
 -0.506  -0.504  -0.496  -0.496  -0.493  -0.484  -0.477  -0.476
 -0.474  -0.470  -0.470  -0.466  -0.463  -0.463  -0.450  -0.449
 -0.447  -0.442  -0.439  -0.436  -0.435  -0.435  -0.433  -0.432
 -0.430  -0.428  -0.424  -0.423  -0.416  -0.416  -0.414  -0.413
 -0.411  -0.410  -0.406  -0.403  -0.399  -0.398  -0.396  -0.395
 -0.394  -0.392  -0.390  -0.389  -0.386  -0.383  -0.382  -0.381
 -0.380  -0.378  -0.376  -0.373  -0.365  -0.365  -0.362  -0.361
 -0.356  -0.353  -0.352  -0.350  -0.348  -0.347  -0.346  -0.344
 -0.341  -0.339  -0.335  -0.333  -0.332  -0.326  -0.319  -0.318
 -0.318  -0.317  -0.317  -0.311  -0.305  -0.304  -0.302  -0.301
 -0.295  -0.294  -0.293  -0.290  -0.288  -0.285  -0.284  -0.281
 -0.270  -0.268  -0.267  -0.261  -0.254  -0.252  -0.251  -0.248
 -0.245  -0.242  -0.237  -0.229  -0.194  -0.190
 -- Virtual --
 -0.112  -0.108  -0.074  -0.070  -0.037  -0.033  -0.029  -0.024
 -0.019  -0.015  -0.013  -0.007  -0.004  -0.004  -0.001   0.004
  0.005   0.007   0.010   0.019   0.027   0.032   0.036   0.039
  0.047   0.054   0.058   0.065   0.069   0.074   0.084   0.088
  0.091   0.097   0.099   0.100   0.105   0.106   0.107   0.110
  0.113   0.116   0.119   0.121   0.123   0.124   0.128   0.129
  0.133   0.134   0.135   0.136   0.141   0.142   0.144   0.147
  0.149   0.149   0.152   0.156   0.162   0.163   0.166   0.167
  0.168   0.168   0.170   0.174   0.175   0.176   0.177   0.182
  0.184   0.186   0.189   0.192   0.193   0.196   0.198   0.199
  0.200   0.202   0.204   0.208   0.214   0.214   0.217   0.217
  0.220   0.225   0.227   0.231   0.232   0.233   0.235   0.237
  0.243   0.246   0.247   0.250   0.252   0.253   0.257   0.260
  0.260   0.266   0.266   0.268   0.272   0.273   0.278   0.279
  0.289   0.291   0.294   0.297   0.299   0.302   0.306   0.308
  0.310   0.313   0.315   0.318   0.320   0.320   0.324   0.328
  0.330   0.334   0.338   0.340   0.342   0.344   0.346   0.351
  0.352   0.357   0.359   0.361   0.364   0.364   0.366   0.368
  0.372   0.375   0.377   0.384   0.390   0.396   0.404   0.411
  0.417   0.421   0.421   0.424   0.427   0.429   0.431   0.436
  0.445   0.447   0.451   0.454   0.458   0.467   0.473   0.475
  0.477   0.480   0.482   0.485   0.492   0.499   0.500   0.503
  0.504   0.507   0.509   0.513   0.513   0.516   0.519   0.521
  0.522   0.524   0.525   0.527   0.529   0.533   0.535   0.536
  0.538   0.538   0.541   0.543   0.547   0.548   0.548   0.550
  0.554   0.555   0.557   0.558   0.559   0.561   0.563   0.565
  0.567   0.569   0.572   0.577   0.579   0.581   0.583   0.584
  0.586   0.589   0.589   0.591   0.595   0.596   0.596   0.597
  0.603   0.604   0.608   0.610   0.611   0.612   0.615   0.616
  0.620   0.622   0.622   0.623   0.625   0.626   0.628   0.629
  0.633   0.636   0.640   0.641   0.644   0.647   0.649   0.652
  0.654   0.657   0.659   0.661   0.662   0.666   0.672   0.674
  0.680   0.681   0.683   0.685   0.688   0.692   0.693   0.695
  0.700   0.701   0.703   0.706   0.713   0.717   0.720   0.721
  0.725   0.729   0.731   0.735   0.736   0.742   0.745   0.747
  0.748   0.752   0.753   0.756   0.758   0.761   0.763   0.764
  0.770   0.777   0.778   0.780   0.785   0.786   0.788   0.793
  0.796   0.799   0.801   0.804   0.805   0.806   0.810   0.811
  0.812   0.816   0.817   0.819   0.821   0.824   0.826   0.826
  0.829   0.831   0.831   0.833   0.834   0.836   0.838   0.839
  0.839   0.842   0.843   0.844   0.845   0.846   0.850   0.851
  0.853   0.855   0.857   0.858   0.860   0.866   0.866   0.868
  0.872   0.876   0.877   0.878   0.881   0.885   0.888   0.891
  0.892   0.894   0.894   0.898   0.902   0.906   0.909   0.909
  0.912   0.914   0.915   0.916   0.917   0.920   0.921   0.924
  0.928   0.929   0.933   0.935   0.936   0.938   0.938   0.941
  0.945   0.948   0.949   0.955   0.957   0.958   0.962   0.962
  0.964   0.968   0.969   0.972   0.976   0.977   0.978   0.986
  0.988   0.989   0.992   0.992   0.994   0.996   0.998   1.000
  1.001   1.002   1.007   1.014   1.016   1.017   1.019   1.021
  1.025   1.028   1.032   1.033   1.035   1.038   1.042   1.043
  1.047   1.049   1.054   1.057   1.059   1.062   1.066   1.067
  1.068   1.076   1.083   1.087   1.098   1.106   1.107   1.116
  1.123   1.129   1.132   1.133   1.141   1.144   1.150   1.155
  1.158   1.161   1.165   1.173   1.176   1.178   1.184   1.187
  1.193   1.195   1.199   1.202   1.209   1.211   1.219   1.230
  1.233   1.248   1.249   1.253   1.258   1.265   1.268   1.273
  1.282   1.284   1.285   1.289   1.292   1.302   1.306   1.311
  1.312   1.313   1.316   1.322   1.326   1.329   1.331   1.334
  1.336   1.338   1.342   1.348   1.352   1.353   1.357   1.366
  1.374   1.377   1.381   1.386   1.392   1.393   1.397   1.401
  1.408   1.410   1.414   1.419   1.427   1.427   1.431   1.432
  1.443   1.445   1.448   1.453   1.459   1.465   1.468   1.473
  1.475   1.477   1.478   1.493   1.499   1.503   1.508   1.510
  1.518   1.527   1.530   1.534   1.536   1.543   1.548   1.563
  1.565   1.567   1.588   1.594   1.600   1.603   1.606   1.612
  1.618   1.620   1.633   1.640   1.643   1.647   1.655   1.657
  1.659   1.666   1.670   1.671   1.673   1.675   1.680   1.688
  1.691   1.694   1.695   1.696   1.698   1.702   1.706   1.707
  1.710   1.725   1.725   1.731   1.732   1.741   1.743   1.747
  1.748   1.752   1.755   1.764   1.767   1.774   1.776   1.781
  1.795   1.798   1.800   1.803   1.805   1.808   1.811   1.814
  1.822   1.824   1.828   1.832   1.834   1.836   1.840   1.844
  1.849   1.851   1.855   1.859   1.865   1.871   1.871   1.875
  1.878   1.879   1.887   1.889   1.889   1.894   1.898   1.899
  1.905   1.905   1.909   1.917   1.920   1.921   1.923   1.923
  1.929   1.932   1.943   1.945   1.945   1.951   1.954   1.958
  1.960   1.964   1.976   1.976   1.982   1.985   1.989   1.991
  1.995   1.996   2.004   2.010   2.015   2.017   2.021   2.025
  2.028   2.033   2.037   2.042   2.054   2.056   2.064   2.067
  2.069   2.070   2.083   2.090   2.091   2.092   2.094   2.099
  2.100   2.103   2.104   2.108   2.120   2.124   2.124   2.129
  2.131   2.135   2.140   2.142   2.144   2.147   2.155   2.156
  2.161   2.162   2.171   2.172   2.172   2.176   2.181   2.185
  2.189   2.196   2.204   2.206   2.213   2.219   2.220   2.225
  2.226   2.228   2.231   2.237   2.243   2.248   2.248   2.253
  2.255   2.255   2.264   2.268   2.270   2.273   2.277   2.282
  2.284   2.289   2.291   2.294   2.296   2.299   2.301   2.307
  2.316   2.318   2.318   2.323   2.324   2.329   2.331   2.337
  2.338   2.341   2.343   2.346   2.348   2.356   2.359   2.359
  2.363   2.364   2.368   2.371   2.377   2.388   2.390   2.394
  2.398   2.401   2.409   2.411   2.412   2.414   2.418   2.420
  2.426   2.428   2.433   2.435   2.441   2.443   2.447   2.452
  2.453   2.456   2.458   2.459   2.460   2.464   2.468   2.474
  2.477   2.482   2.483   2.485   2.489   2.491   2.498   2.503
  2.506   2.514   2.522   2.522   2.524   2.529   2.535   2.536
  2.537   2.542   2.546   2.551   2.555   2.556   2.558   2.566
  2.571   2.579   2.586   2.588   2.596   2.600   2.604   2.608
  2.613   2.614   2.624   2.631   2.634   2.638   2.644   2.646
  2.649   2.658   2.661   2.662   2.665   2.667   2.668   2.675
  2.678   2.679   2.685   2.688   2.692   2.698   2.705   2.705
  2.712   2.712   2.718   2.721   2.734   2.735   2.740   2.753
  2.754   2.764   2.775   2.784   2.784   2.788   2.793   2.803
  2.803   2.810   2.817   2.819   2.823   2.831   2.839   2.841
  2.845   2.849   2.861   2.864   2.869   2.873   2.875   2.882
  2.883   2.890   2.894   2.900   2.905   2.907   2.908   2.910
  2.912   2.927   2.930   2.932   2.936   2.944   2.946   2.956
  2.966   2.971   2.971   2.980   2.987   3.000   3.002   3.032
  3.046   3.051   3.058   3.060   3.061   3.078   3.091   3.149
  3.149   3.174   3.188   3.202   3.203   3.208   3.228   3.232
  3.246   3.249   3.258   3.259   3.267   3.274   3.274   3.281
  3.286   3.290   3.295   3.303   3.304   3.318   3.320   3.328
  3.334   3.352   3.357   3.364   3.373   3.395   3.409   3.414
  3.437   3.443   3.458   3.478   3.486   3.499   3.531   3.546
  3.559   3.567   3.569   3.573   3.585   3.599   3.602   3.604
  3.619   3.639   3.733   3.736   3.840   3.850   3.921   3.922
  3.933   3.933   3.941   3.945   3.971   3.976   3.980   3.998
  4.028   4.029   4.075   4.081   4.084   4.092   4.108   4.126
  4.128   4.133   4.147   4.151   4.161   4.169   4.183   4.190
  4.212   4.215   4.230   4.247   4.249   4.255   4.258   4.267
  4.273   4.278   4.331   4.336   4.357   4.368   4.379   4.389
  4.415   4.424   4.431   4.450   4.461   4.473   4.482   4.494
  4.495   4.523   4.533   4.534   4.577   4.579   4.648   4.663
  4.687   4.690   4.709   4.714   4.764   4.767   4.789   4.803
 --------------------------------------------------------------
 
          Ground-State Mulliken Net Atomic Charges

     Atom                 Charge (a.u.)
  ----------------------------------------
      1 C                     0.289228
      2 C                    -0.125152
      3 N                    -0.476583
      4 C                    -0.054901
      5 C                     0.051910
      6 C                     0.052879
      7 C                    -0.026300
      8 C                     0.066358
      9 C                     0.198341
     10 N                    -0.480866
     11 N                    -0.505183
     12 C                     0.171729
     13 C                     0.276574
     14 S                     0.605518
     15 N                    -0.532346
     16 C                    -0.230313
     17 S                     0.360570
     18 C                    -0.121007
     19 C                    -0.206378
     20 S                     0.297071
     21 C                     0.145713
     22 C                     0.065554
     23 C                    -0.315866
     24 C                    -0.087904
     25 N                    -0.431306
     26 S                     0.278132
     27 C                     0.133076
     28 C                    -0.318746
     29 C                    -0.227902
     30 H                     0.085349
     31 H                     0.105719
     32 H                     0.104230
     33 H                     0.121056
     34 H                     0.128643
     35 H                     0.111703
     36 H                     0.127575
     37 H                     0.130034
     38 H                     0.121045
     39 C                    -0.184645
     40 H                     0.102681
     41 H                     0.100199
     42 H                     0.089640
     43 C                    -0.169633
     44 H                     0.097151
     45 C                    -0.178467
     46 H                     0.090852
     47 H                     0.092548
     48 H                     0.092251
     49 C                    -0.186385
     50 H                     0.095410
     51 C                    -0.310379
     52 H                     0.090409
     53 H                     0.101694
     54 H                     0.099802
     55 H                     0.100960
     56 C                     0.258559
     57 C                    -0.113751
     58 N                    -0.483817
     59 C                    -0.091595
     60 C                     0.066136
     61 C                     0.054391
     62 C                     0.019479
     63 C                     0.054296
     64 C                     0.263697
     65 N                    -0.527253
     66 N                    -0.563867
     67 C                     0.192801
     68 C                     0.326722
     69 S                     0.584590
     70 N                    -0.549964
     71 C                    -0.244314
     72 S                     0.359551
     73 C                    -0.134701
     74 C                    -0.236763
     75 S                     0.340124
     76 C                     0.173120
     77 C                     0.065514
     78 C                    -0.324542
     79 C                    -0.081099
     80 N                    -0.415769
     81 S                     0.259505
     82 C                     0.124786
     83 C                    -0.308460
     84 C                    -0.217348
     85 H                     0.088410
     86 H                     0.093725
     87 H                     0.122725
     88 H                     0.115830
     89 H                     0.131204
     90 H                     0.101900
     91 H                     0.109419
     92 H                     0.130253
     93 H                     0.089100
     94 C                    -0.169970
     95 H                     0.119134
     96 H                     0.094970
     97 H                     0.111143
     98 C                    -0.186780
     99 H                     0.083286
    100 C                    -0.175734
    101 H                     0.089090
    102 H                     0.094116
    103 H                     0.089852
    104 C                    -0.169736
    105 H                     0.098782
    106 C                    -0.322463
    107 H                     0.097901
    108 H                     0.090595
    109 H                     0.106160
    110 H                     0.105714
  ----------------------------------------
  Sum of atomic charges =     0.000000

 -----------------------------------------------------------------
                    Cartesian Multipole Moments
 -----------------------------------------------------------------
    Charge (ESU x 10^10)
                 0.0000
    Dipole Moment (Debye)
         X      -0.2936      Y       0.7678      Z      -3.8662
       Tot       3.9526
    Quadrupole Moments (Debye-Ang)
        XX    -386.0923     XY      16.3089     YY    -437.0622
        XZ      11.2043     YZ       2.7815     ZZ    -447.5197
    Octopole Moments (Debye-Ang^2)
       XXX     -83.2249    XXY      96.4198    XYY     -77.6937
       YYY     -20.8249    XXZ    -152.5067    XYZ      40.5311
       YYZ      19.5740    XZZ     -23.3556    YZZ     -24.2021
       ZZZ     -11.1444
    Hexadecapole Moments (Debye-Ang^3)
      XXXX  -91284.2956   XXXY    1550.2063   XXYY  -21493.9365
      XYYY     914.5976   YYYY  -38979.0466   XXXZ     389.1577
      XXYZ     304.6131   XYYZ     687.0016   YYYZ     205.2597
      XXZZ  -17450.4251   XYZZ     122.4194   YYZZ   -7634.6388
      XZZZ      98.0280   YZZZ    -100.6567   ZZZZ   -5526.5569
 -----------------------------------------------------------------
Archival summary:
1\1\mn426\SP\ProcedureUnspecified\6-31G**\8105042\afmv_a\SatOct601:09:592018SatOct601:09:592018\0\\#,ProcedureUnspecified,6-31G**,\\0,1\S\C,1,1.70673\H,2,1.08245,1,118.532\C,2,1.37078,1,114.63,3,175.996,0\H,4,1.08393,2,122.807,1,179.763,0\C,4,1.41323,2,113.173,1,3.25236,0\C,6,1.36141,4,134.295,2,-179.589,0\C,6,1.37994,4,110.301,2,-1.38701,0\C,8,1.39169,6,112.878,4,-175.501,0\C,7,1.46048,6,123.039,4,-7.42148,0\N,10,1.30398,7,113.574,6,-158.34,0\C,11,1.34311,10,108.721,7,-177.75,0\H,12,1.08161,11,115.918,10,175.947,0\C,12,1.35119,11,117.826,10,5.9477,0\H,14,1.08213,12,126.499,11,-166.087,0\C,9,1.48982,8,121.482,6,-174.96,0\N,16,1.31603,9,116.089,8,3.26592,0\C,17,1.35246,16,121.102,9,164.05,0\H,18,1.08917,17,117.047,16,175.7,0\C,16,1.42267,9,123.022,8,166.187,0\N,20,1.34294,16,124.806,9,15.1751,0\C,20,1.3912,16,123.292,9,-168.724,0\N,22,1.30065,20,119.976,16,-178.568,0\C,22,1.42421,20,117.189,16,5.43935,0\C,24,1.49115,22,126.948,20,175.556,0\C,25,1.40544,24,121.514,22,29.3245,0\H,26,1.08868,25,121.165,24,1.23109,0\N,26,1.37364,25,122.766,24,175.54,0\C,28,1.32462,26,120.649,25,-5.19597,0\C,29,1.40878,28,120.829,26,9.10969,0\H,30,1.08617,29,120.211,28,176.068,0\C,30,1.38854,29,118.071,28,-6.31165,0\H,32,1.08634,30,120.772,29,170.62,0\C,29,1.51123,28,116.225,26,176.625,0\H,34,1.09668,29,108.552,28,29.3591,0\H,34,1.09722,29,109.435,28,141.829,0\C,34,1.51344,29,111.708,28,-95.5591,0\H,37,1.09672,34,107.984,29,73.9817,0\H,37,1.0973,34,113.99,29,-41.0156,0\C,37,1.53806,34,110.009,29,-161.905,0\H,40,1.09652,37,108.726,34,-60.2818,0\H,40,1.0967,37,108.659,34,48.911,0\C,40,1.5271,37,116.448,34,176.528,0\H,43,1.0968,40,112.902,37,167.811,0\H,43,1.09721,40,105.211,37,60.2274,0\C,43,1.52603,40,116.837,37,-62.3391,0\H,46,1.09669,43,113.008,40,-76.6673,0\H,46,1.09687,43,110.154,40,46.8906,0\C,46,1.55919,43,101.47,40,166.503,0\H,49,1.09678,46,113.128,43,47.2995,0\H,49,1.09716,46,110.281,43,-71.3713,0\H,49,1.09765,46,112.753,43,175.542,0\S,23,1.65122,22,102.405,20,-0.135654,0\S,7,1.76238,6,112.678,4,179.696,0\S,10,1.77177,7,128.922,6,21.205,0\H,19,2.61486,18,151.181,17,41.0355,0\C,56,1.08211,19,86.0228,18,-115.819,0\C,57,1.39895,56,126.614,19,-100.005,0\H,58,1.08434,57,121.237,56,7.67151,0\C,58,1.43987,57,112.557,56,-168.049,0\C,60,1.36755,58,110.739,57,-1.04578,0\C,60,1.37144,58,130.774,57,179.661,0\C,61,1.40742,60,113.023,58,-179.521,0\C,63,1.4416,61,125.85,60,175.249,0\N,64,1.33045,63,117.354,61,-29.8348,0\C,65,1.34936,64,122.612,63,-167.598,0\H,66,1.08885,65,119.81,64,-179.843,0\C,66,1.40932,65,122.139,64,13.8686,0\C,68,1.42061,66,115.444,65,-8.27824,0\C,69,1.36321,68,121,66,0.382611,0\N,70,1.35681,69,113.672,68,170.443,0\N,69,1.36889,68,121.344,66,171.929,0\C,62,1.45723,60,123.897,58,5.38695,0\N,73,1.30536,62,113.346,60,-172.081,0\C,74,1.37959,73,112.367,62,-173.537,0\H,75,1.08199,74,121.343,73,-177.754,0\C,75,1.3954,74,109.128,73,4.04556,0\H,77,1.08216,75,134.185,74,179.182,0\C,68,1.50293,66,123.05,65,173.752,0\C,79,1.37514,68,123.795,66,106.756,0\H,80,1.08525,79,117.75,68,14.9225,0\C,79,1.39575,68,118.077,66,-64.1463,0\H,82,1.08935,79,121.048,68,-9.12936,0\N,82,1.37631,79,126.44,68,178.359,0\C,84,1.31827,82,116.02,79,-7.21333,0\C,80,1.41259,79,116.711,68,-175.7,0\H,86,1.0859,80,122.644,79,179.908,0\C,85,1.50755,84,114.198,82,-174.077,0\H,88,1.09702,85,112.008,84,-7.55849,0\H,88,1.09734,85,108.861,84,-128.139,0\C,88,1.55396,85,111.371,84,117.859,0\H,91,1.09709,88,110.495,85,48.934,0\H,91,1.09743,88,107.79,85,-56.7967,0\C,91,1.48662,88,117.897,85,-179.148,0\H,94,1.09636,91,110.475,88,-68.6711,0\H,94,1.09805,91,111.584,88,49.3546,0\C,94,1.55894,91,107.877,88,175.061,0\H,97,1.09633,94,113.029,91,55.3619,0\H,97,1.09712,94,106.014,91,-62.4634,0\S,72,1.58827,69,100.945,68,-177.485,0\C,97,1.61185,94,117.504,91,-178.68,0\H,101,1.09711,97,114.121,94,49.6556,0\H,101,1.09737,97,107.488,94,-69.11,0\C,101,1.50944,97,112.757,94,175.997,0\H,104,1.09671,101,108.913,97,-57.2259,0\H,104,1.09694,101,115.028,97,61.8564,0\H,104,1.09708,101,103.899,97,176.34,0\S,73,1.74328,62,125.746,60,26.1688,0\S,63,1.77928,61,107.577,60,-10.362,0\S,61,1.79593,60,116.155,58,5.04001,0\\\@

 Total job time:  87.13s(wall), 928.77s(cpu) 
 Sat Oct  6 01:09:59 2018

        *************************************************************
        *                                                           *
        *  Thank you very much for using Q-Chem.  Have a nice day.  *
        *                                                           *
        *************************************************************


