
Running Job 1 of 1 ./9/20.qcin
qchem ./9/20.qcin_23193.0 /tmpu/cab_g/afmv_a/scratch_qchem/qchem23193/ 1
/tmpu/appuserlic/qchem4.4/serial-multicore/exe/qcprog.exe_s ./9/20.qcin_23193.0 /tmpu/cab_g/afmv_a/scratch_qchem/qchem23193/
Check license passed

                  Welcome to Q-Chem
     A Quantum Leap Into The Future Of Chemistry


 Q-Chem 4.4, Q-Chem, Inc., Pleasanton, CA (2016)

 Y. Shao,  Z. Gan,  E. Epifanovsky,  A. T. B. Gilbert,  M. Wormit,  
 J. Kussmann,  A. W. Lange,  A. Behn,  J. Deng,  X. Feng,  D. Ghosh,  
 M. Goldey,  P. R. Horn,  L. D. Jacobson,  I. Kaliman,  F. Rob,  
 R. Z. Khaliullin,  T. Kus,  A. Landau,  J. Liu,  E. I. Proynov,  Y. M. Rhee,  
 R. M. Richard,  M. A. Rohrdanz,  R. P. Steele,  E. J. Sundstrom,  
 H. L. Woodcock III,  P. M. Zimmerman,  D. Zuev,  B. Albrecht,  E. Alguire,  
 B. Austin,  S. A. Baeppler,  G. J. O. Beran,  Y. A. Bernard,  E. Berquist,  
 K. Brandhorst,  K. B. Bravaya,  S. T. Brown,  D. Casanova,  C.-M. Chang,  
 Y. Chen,  S. H. Chien,  K. D. Closser,  M. P. Coons,  D. L. Crittenden,  
 S. Dasgupta,  M. Diedenhofen,  R. A. DiStasio Jr.,  H. Do,  A. D. Dutoi,  
 R. G. Edgar,  P.-T. Fang,  S. Fatehi,  Q. Feng,  L. Fusti-Molnar,  
 A. Ghysels,  A. Golubeva-Zadorozhnaya,  J. Gomes,  A. Gunina,  
 M. W. D. Hanson-Heine,  P. H. P. Harbach,  A. W. Hauser,  J. E. Herr,  
 E. G. Hohenstein,  Z. C. Holden,  K. Hui,  T.-C. Jagau,  H. Ji,  B. Kaduk,  
 K. Khistyaev,  Jaehoon Kim,  Jihan Kim,  R. A. King,  P. Klunzinger,  
 K. Koh,  D. Kosenkov,  T. Kowalczyk,  C. M. Krauter,  A. Kunitsa,  
 K. U. Lao,  A. Laurent,  K. V. Lawler,  J. Lee,  D. Lefrancois,  S. Lehtola,  
 S. V. Levchenko,  C. Y. Lin,  Y.-S. Lin,  F. Liu,  E. Livshits,  
 R. C. Lochan,  A. Luenser,  P. Manohar,  S. F. Manzer,  S.-P. Mao,  Y. Mao,  
 N. Mardirossian,  A. V. Marenich,  L. A. Martinez-Martinez,  S. A. Maurer,  
 N. J. Mayhall,  J.-M. Mewes,  A. F. Morrison,  K. Nanda,  T. S. Nguyen-Beck,  
 C. M. Oana,  R. Olivares-Amaya,  D. P. O'Neill,  J. A. Parkhill,  
 T. M. Perrine,  R. Peverati,  P. A. Pieniazek,  F. Plasser,  A. Prociuk,  
 D. R. Rehn,  E. Rosta,  N. J. Russ,  N. Sergueev,  S. M. Sharada,  
 S. Sharma,  D. W. Small,  A. Sodt,  T. Stauch,  T. Stein,  D. Stuck,  
 Y.-C. Su,  A. J. W. Thom,  T. Tsuchimochi,  L. Vogt,  O. Vydrov,  T. Wang,  
 M. A. Watson,  J. Wenzel,  A. White,  C. F. Williams,  V. Vanovschi,  
 K. Yao,  S. Yeganeh,  S. R. Yost,  Z.-Q. You,  I. Y. Zhang,  X. Zhang,  
 Y. Zhao,  B. R. Brooks,  G. K. L. Chan,  D. M. Chipman,  C. J. Cramer,  
 W. A. Goddard III,  M. S. Gordon,  W. J. Hehre,  A. Klamt,  
 H. F. Schaefer III,  M. W. Schmidt,  C. D. Sherrill,  D. G. Truhlar,  
 A. Warshel,  X. Xu,  A. Aspuru-Guzik,  R. Baer,  A. T. Bell,  N. A. Besley,  
 J.-D. Chai,  A. Dreuw,  B. D. Dunietz,  T. R. Furlani,  S. R. Gwaltney,  
 C.-P. Hsu,  Y. Jung,  J. Kong,  D. S. Lambrecht,  W. Liang,  C. Ochsenfeld,  
 V. A. Rassolov,  L. V. Slipchenko,  J. E. Subotnik,  T. Van Voorhis,  
 J. M. Herbert,  A. I. Krylov,  P. M. W. Gill,  M. Head-Gordon

 Contributors to earlier versions of Q-Chem not listed above: 
 R. D. Adamson,  J. Baker,  E. F. C. Byrd,  A. K. Chakraborty,  C.-L. Cheng,  
 H. Dachsel,  R. J. Doerksen,  G. Hawkins,  A. Heyden,  S. Hirata,  
 G. Kedziora,  F. J. Keil,  C. Kelley,  P. P. Korambath,  W. Kurlancheek,  
 A. M. Lee,  M. S. Lee,  D. Liotard,  I. Lotan,  P. E. Maslen,  N. Nair,  
 D. Neuhauser,  R. Olson,  B. Peters,  J. Ritchie,  N. E. Schultz,  
 N. Shenvi,  A. C. Simmonett,  K. S. Thanthiriwatte,  Q. Wu,  W. Zhang

 Please cite Q-Chem as follows:
 Y. Shao et al., Mol. Phys. 113, 184-215 (2015)
 DOI: 10.1080/00268976.2014.952696

 Q-Chem 4.4.2 for Intel X86 Linux

 Parts of Q-Chem use Armadillo 5.200.1 (Boston Tea Smuggler).
 http://arma.sourceforge.net/

 Q-Chem begins on Sat Oct  6 01:10:01 2018  

Host: 
0

     Scratch files written to /tmpu/cab_g/afmv_a/scratch_qchem/qchem23193//
 Dec716 11556_ 22328  22283 4050   
Processing $rem in /tmpu/appuserlic/qchem4.4/serial-multicore/config/preferences.
 MEM_TOTAL  2000 
FILE_GEOM_ORG=        593

Checking the input file for inconsistencies... 	...done.

--------------------------------------------------------------
User input:
--------------------------------------------------------------
$comment
SP
$end

$rem
MEM_STATIC 5000
MEM_TOTAL 20000
JOBTYPE SP
EXCHANGE B3LYP
BASIS 6-31g(d,p)
$end

$molecule
0 1
C          15.497000     16.387000    -14.884000
C          15.357000     17.572000    -14.182000
N          14.467000     15.598000    -15.203000
C          14.045000     18.072000    -13.882000
C          13.231000     16.033000    -14.818000
C          12.979000     17.166000    -14.067000
C          11.583000     17.598000    -13.664000
C          11.399000     18.370000    -12.519000
C          10.367000     17.150000    -14.141000
N          10.268000     18.908000    -12.080000
N          10.282000     16.213000    -15.114000
C           9.119000     17.653000    -13.677000
C           9.127000     18.555000    -12.563000
S           8.705000     16.249000    -15.505000
N           8.068000     17.190000    -14.333000
C           7.865000     19.155000    -12.040000
S           6.254000     18.412000    -12.097000
C           7.781000     20.411000    -11.462000
C           5.566000     19.828000    -11.296000
S           9.057000     21.675000    -11.271000
C           6.515000     20.791000    -11.107000
C           4.155000     20.029000    -11.035000
C           7.753000     22.736000    -10.714000
C           6.482000     22.159000    -10.704000
N           3.545000     19.035000    -10.413000
S           3.049000     21.384000    -11.536000
C           2.258000     19.398000    -10.083000
C           1.771000     20.456000    -10.829000
C          16.915000     15.786000    -15.033000
H          16.232000     18.156000    -13.910000
H          14.001000     19.006000    -13.330000
H          12.433000     15.322000    -15.028000
H          12.316000     18.670000    -12.014000
H           8.166000     23.679000    -10.381000
H           5.559000     22.653000    -10.424000
H           1.690000     18.791000     -9.391000
H           0.741000     20.789000    -10.835000
H          16.976000     15.349000    -16.037000
C          17.205000     14.716000    -13.933000
H          17.701000     16.514000    -14.795000
H          18.125000     14.129000    -14.040000
H          16.358000     14.020000    -13.880000
C          17.266000     15.286000    -12.468000
H          17.920000     16.164000    -12.394000
C          17.942000     14.258000    -11.460000
H          16.292000     15.661000    -12.131000
H          18.811000     13.750000    -11.895000
H          17.172000     13.513000    -11.225000
C          18.452000     14.761000    -10.098000
H          18.689000     13.927000     -9.426000
C          17.455000     15.512000     -9.235000
H          19.355000     15.360000    -10.273000
H          17.333000     16.602000     -9.272000
H          17.607000     15.276000     -8.175000
H          16.439000     15.115000     -9.351000
C          19.448000     20.136000    -10.324000
C          18.311000     19.380000     -9.967000
N          19.440000     21.118000    -11.230000
C          17.020000     19.744000    -10.404000
C          18.210000     21.438000    -11.779000
C          16.976000     20.845000    -11.338000
C          15.638000     21.349000    -11.870000
C          15.697000     22.126000    -13.017000
C          14.414000     21.413000    -11.146000
N          14.699000     22.918000    -13.465000
N          14.244000     20.715000    -10.023000
C          13.340000     22.160000    -11.588000
C          13.491000     22.961000    -12.775000
S          12.692000     21.032000     -9.590000
N          12.206000     22.022000    -10.831000
C          12.399000     23.777000    -13.358000
S          10.882000     24.213000    -12.526000
C          12.462000     24.549000    -14.508000
C          10.475000     25.427000    -13.738000
S          13.773000     24.669000    -15.648000
C          11.450000     25.394000    -14.696000
C           9.338000     26.327000    -13.654000
C          12.887000     25.970000    -16.456000
C          11.673000     26.221000    -15.848000
N           9.237000     27.208000    -14.639000
S           8.059000     26.314000    -12.451000
C           8.119000     28.000000    -14.487000
C           7.358000     27.695000    -13.393000
C          20.809000     19.850000     -9.753000
H          18.306000     18.686000     -9.131000
H          16.096000     19.290000    -10.057000
H          18.155000     22.418000    -12.251000
H          16.627000     22.207000    -13.578000
H          13.278000     26.279000    -17.417000
H          11.039000     27.040000    -16.171000
H           7.931000     28.927000    -15.013000
H           6.465000     28.162000    -12.998000
H          21.534000     20.657000     -9.918000
C          21.517000     18.516000    -10.211000
H          20.681000     19.744000     -8.668000
H          21.530000     17.906000     -9.300000
H          22.531000     18.795000    -10.521000
C          20.794000     17.586000    -11.260000
H          21.328000     16.628000    -11.280000
C          20.733000     18.149000    -12.695000
H          19.840000     17.238000    -10.846000
H          21.731000     18.564000    -12.878000
H          19.956000     18.919000    -12.778000
C          20.498000     17.090000    -13.777000
H          21.354000     16.403000    -13.788000
C          20.309000     17.727000    -15.171000
H          19.621000     16.469000    -13.557000
H          19.330000     18.207000    -15.289000
H          20.484000     16.938000    -15.914000
H          21.046000     18.491000    -15.447000
$end

--------------------------------------------------------------
 ----------------------------------------------------------------
             Standard Nuclear Orientation (Angstroms)
    I     Atom           X                Y                Z
 ----------------------------------------------------------------
    1      C       4.3825960587    -2.3836664550    -2.5977935662
    2      C       3.8487043020    -1.3876892934    -1.7980322983
    3      N       3.6855624884    -3.4476008994    -3.0069019870
    4      C       2.4477780393    -1.4000286690    -1.4840301543
    5      C       2.3792497686    -3.5020678955    -2.6122801116
    6      C       1.7587133391    -2.5977040866    -1.7707014517
    7      C       0.3034779099    -2.7117845250    -1.3618928177
    8      C      -0.1246249084    -2.1565525592    -0.1580197176
    9      C      -0.6874750048    -3.5071264917    -1.9025706116
   10      N      -1.3674666425    -2.0833990476     0.3016747327
   11      N      -0.4530797896    -4.3247332451    -2.9554243905
   12      C      -2.0277641051    -3.5092774947    -1.4235826149
   13      C      -2.3209273255    -2.7635689183    -0.2350381078
   14      S      -1.9491663292    -4.8001086057    -3.3759589701
   15      N      -2.8604723481    -4.2456739748    -2.1402577198
   16      C      -3.7072872916    -2.6852066528     0.3108908249
   17      S      -4.9628137468    -3.9300732107     0.1541120849
   18      C      -4.2143877465    -1.5924635601     0.9945849540
   19      C      -6.0897645744    -2.9161899870     1.0607672791
   20      S      -3.4519083868     0.0116085535     1.3231133095
   21      C      -5.5301432091    -1.7059799652     1.3538656083
   22      C      -7.4806599357    -3.2385509701     1.3076204550
   23      C      -5.0366325223     0.5031575217     1.9423184661
   24      C      -6.0298142854    -0.4753192953     1.8741781403
   25      N      -7.7034612350    -4.4334368389     1.8268769827
   26      S      -8.9916192951    -2.3092119114     0.9031544757
   27      C      -9.0332949767    -4.5678415280     2.1593158478
   28      C      -9.8632083312    -3.6804987972     1.4983198552
   29      C       5.9193771221    -2.4426540234    -2.7679418253
   30      H       4.4706621334    -0.5645526523    -1.4570344597
   31      H       2.0892154904    -0.5920082812    -0.8535288050
   32      H       1.8740395828    -4.4228544241    -2.9009665105
   33      H       0.6371742050    -1.6051497072     0.3910986719
   34      H      -4.9716379612     1.4968668496     2.3654313101
   35      H      -7.0638442596    -0.3572731480     2.1761915830
   36      H      -9.3497140047    -5.3929271342     2.7830543676
   37      H     -10.9448355527    -3.7241675939     1.4990879179
   38      H       6.1177018389    -2.7399544408    -3.8047570299
   39      C       6.5720752325    -3.4408877285    -1.7597183150
   40      H       6.4077294486    -1.5126325347    -2.4501430907
   41      H       7.6371321306    -3.6623608205    -1.8976366720
   42      H       6.0182989108    -4.3881274106    -1.7862281300
   43      C       6.4468254592    -3.0185378363    -0.2494934765
   44      H       6.7578664742    -1.9792125246    -0.0847743718
   45      C       7.4463086392    -3.8361226379     0.6791681762
   46      H       5.4066199515    -3.0343772266     0.0977695584
   47      H       8.4329746762    -3.9719911997     0.2203873295
   48      H       6.9835133058    -4.8188865880     0.8313046210
   49      C       7.7645144414    -3.3122452541     2.0907100828
   50      H       8.2817097651    -4.0699163025     2.6921687925
   51      C       6.5780003566    -3.0318416483     2.9942238594
   52      H       8.4031506723    -2.4253849010     1.9884482689
   53      H       6.0865290935    -2.0522040925     3.0500741656
   54      H       6.8126393022    -3.2948751762     4.0325676986
   55      H       5.7606603729    -3.7428800559     2.8218848498
   56      C       6.8396680598     2.0735892689     2.3574733885
   57      C       6.0375011768     0.9430072547     2.6221743532
   58      N       6.4839080408     3.0695071285     1.5408912275
   59      C       4.6959969067     0.8768768446     2.1907359889
   60      C       5.2137411432     2.9933454197     0.9953855482
   61      C       4.2650617134     1.9740681877     1.3558952761
   62      C       2.8301428410     2.0310400859     0.8410690604
   63      C       2.6057070468     2.8801285919    -0.2320088880
   64      C       1.6666281347     1.6037065778     1.5411173452
   65      N       1.3911461526     3.3159543682    -0.6305935430
   66      N       1.7593726871     0.7922863518     2.5947912344
   67      C       0.3963602050     1.9707313640     1.1429199155
   68      C       0.2495656161     2.8775661307     0.0341038557
   69      S       0.1977856760     0.5142532207     3.0200271513
   70      N      -0.6125798326     1.3827569235     1.8601193702
   71      C      -1.0628261286     3.3154823699    -0.4988748269
   72      S      -2.6287498209     3.1249593624     0.3349075028
   73      C      -1.2818104684     4.1615479976    -1.5752910162
   74      C      -3.4420973995     4.2274067725    -0.7748061649
   75      S      -0.1043427200     4.8280823133    -2.6716589778
   76      C      -2.5252547478     4.6187681461    -1.7106019906
   77      C      -4.8191551964     4.6685213465    -0.6371298897
   78      C      -1.3932357638     5.8103707843    -3.3818174681
   79      C      -2.6131259370     5.5715984205    -2.7807211999
   80      N      -5.2280637767     5.5450670661    -1.5432470865
   81      S      -6.0029452300     4.1073544892     0.5320372988
   82      C      -6.5493044056     5.8857371075    -1.3468823148
   83      C      -7.1472075040     5.2402169341    -0.3005565573
   84      C       8.2212288076     2.2247399762     2.9307110042
   85      H       6.2808592098     0.2179609656     3.3939526545
   86      H       3.9892514261     0.1028379924     2.4765255638
   87      H       4.8188537493     3.9322957620     0.6098402191
   88      H       3.4448524253     3.3269087941    -0.7634263176
   89      H      -1.1425936296     6.3200672104    -4.3033765133
   90      H      -3.4942205094     6.1470263149    -3.0445413904
   91      H      -7.0512132054     6.7341234270    -1.7937348739
   92      H      -8.1426222689     5.3330824654     0.1142788787
   93      H       8.6210663357     3.2436358129     2.8527352061
   94      C       9.3419993688     1.2636395377     2.3732674677
   95      H       8.1484560550     1.9843323248     3.9992395661
   96      H       9.5739637564     0.6165663529     3.2274798631
   97      H      10.1940297230     1.9019057643     2.1109746930
   98      C       8.9745544008     0.2392812654     1.2314687441
   99      H       9.8064558966    -0.4697846360     1.1393522488
  100      C       8.7086160203     0.8728301438    -0.1497653405
  101      H       8.2036935685    -0.4520719628     1.5926062403
  102      H       9.4998944409     1.6212657110    -0.2740258040
  103      H       7.7126366370     1.3316403076    -0.1819569810
  104      C       8.8433363305    -0.1007458371    -1.3251079490
  105      H       9.8838390102    -0.4463314016    -1.3775559338
  106      C       8.4321239570     0.5541112302    -2.6618175679
  107      H       8.2371432222    -1.0032234421    -1.1793887394
  108      H       7.3464545162     0.6754167460    -2.7586258173
  109      H       8.8616239754    -0.0561265514    -3.4670098332
  110      H       8.8569837481     1.5469161821    -2.8538422681
 ----------------------------------------------------------------
 Molecular Point Group                 C1    NOp =  1
 Largest Abelian Subgroup              C1    NOp =  1
 Nuclear Repulsion Energy = 12241.5994314142 hartrees
 There are      270 alpha and      270 beta electrons
 Requested basis set is 6-31G(d,p)
 There are 406 shells and 1262 basis functions

 Total QAlloc Memory Limit  20000 MB
 Mega-Array Size      4888 MB
 MEM_STATIC part      5000 MB
 A cutoff of  1.0D-08 yielded  15962 shell pairs
 There are    157324 function pairs
 
 -------------------------------------------------------
 OpenMP Integral Computing Module                       
 Release: version 1.0, May 2013, Q-Chem Inc. Pittsburgh 
 -------------------------------------------------------
 Integral Job Info:
 Integral job number is                      11
 Integral operator is                         1
 short-range coefficients                     0
 long-range coefficients              100000000
 Omega coefficients                           0
 if combine SR and LR in K                    0
 Integral screening is                        0
 Integral computing path is                   2
 max size of driver memory is            800000
 size of driver memory is                593474
 size of scratch memory is             15166112
 max col of scratch BK array               1296
 max len of scratch array in speh3          155
 max len of scratch index in speh4           18
 max int batch size is                      520
 min int batch size is                       52
 fixed nKL is                                52
 max L of basis functions is                  2
 order of int derivative is                   0
 number of shells is                        406
 number of basis is                        1262
 number of cartesian basis is              1262
 number of contracted shell pairs         15962
 number of primitive shell pairs          47841
 maxK2 (contraction) of shell pair           36
 max number of K2 of shell pair               1
 max number of CS2 of shell pair           1506
 max number of PS2 of shell pair           8478
 mem total for path MDJ                  319480
 -------------------------------------------------------
 Smallest overlap matrix eigenvalue = 4.33E-04

 Scale SEOQF with 1.000000e-02/1.000000e-02/1.000000e-01

 Standard Electronic Orientation quadrupole field applied
 Nucleus-field energy     =    -0.0000001113 hartrees
 Guess from superposition of atomic densities
 Warning:  Energy on first SCF cycle will be non-variational
 A restricted hybrid HF-DFT SCF calculation will be
 performed using Pulay DIIS extrapolation
 Exchange:     0.2000 Hartree-Fock + 0.0800 Slater + 0.7200 B88
 Correlation:  0.1900 VWN1RPA + 0.8100 LYP
 Using SG-1 standard quadrature grid
 SCF converges when DIIS error is below 1.0E-05
 using 16 threads for integral computing 
 -------------------------------------------------------
 OpenMP BLAS3 based DFT computing Module                
 Release: version 1.0, May 2013, Q-Chem Inc. Pittsburgh 
 -------------------------------------------------------
 ---------------------------------------
  Cycle       Energy         DIIS Error
 ---------------------------------------
    1   -5679.9415833763      2.14E-02
    2   -5662.4931288151      2.14E-03
    3   -5660.4999505767      3.57E-03
    4   -5663.1775503850      1.12E-03
    5   -5663.4559904003      3.91E-04
    6   -5663.4704923788      2.97E-04
    7   -5663.4880023069      1.06E-04
    8   -5663.4903424526      3.21E-05
    9   -5663.4905123546      1.68E-05
   10   -5663.4905666100      6.30E-06 Convergence criterion met
 ---------------------------------------
 SCF time:  CPU 1174.98 s  wall 101.95 s
 SCF   energy in the final basis set = -5663.4905666100
 Total energy in the final basis set = -5663.4905666100
 
 --------------------------------------------------------------
 
                    Orbital Energies (a.u.)
 --------------------------------------------------------------
 
 Alpha MOs
 -- Occupied --
-88.991 -88.982 -88.934 -88.932 -88.929 -88.926 -88.906 -88.904
-14.397 -14.389 -14.387 -14.381 -14.353 -14.348 -14.346 -14.346
-14.335 -14.329 -10.279 -10.273 -10.272 -10.262 -10.262 -10.259
-10.253 -10.252 -10.248 -10.247 -10.239 -10.238 -10.237 -10.237
-10.237 -10.236 -10.233 -10.232 -10.232 -10.231 -10.230 -10.226
-10.226 -10.225 -10.225 -10.224 -10.220 -10.220 -10.220 -10.218
-10.216 -10.215 -10.207 -10.204 -10.203 -10.203 -10.197 -10.193
-10.185 -10.185 -10.183 -10.180 -10.179 -10.178 -10.178 -10.177
-10.175 -10.171 -10.171 -10.170  -8.046  -8.038  -7.994  -7.992
 -7.988  -7.985  -7.965  -7.965  -6.011  -6.006  -6.004  -6.003
 -5.998  -5.996  -5.958  -5.956  -5.955  -5.953  -5.952  -5.951
 -5.949  -5.949  -5.949  -5.945  -5.945  -5.941  -5.929  -5.929
 -5.926  -5.925  -5.921  -5.921  -1.044  -1.041  -0.976  -0.972
 -0.968  -0.950  -0.937  -0.935  -0.922  -0.916  -0.911  -0.910
 -0.847  -0.840  -0.837  -0.829  -0.809  -0.807  -0.803  -0.802
 -0.800  -0.798  -0.796  -0.794  -0.782  -0.780  -0.769  -0.766
 -0.750  -0.747  -0.741  -0.737  -0.730  -0.724  -0.709  -0.705
 -0.694  -0.694  -0.677  -0.673  -0.656  -0.655  -0.649  -0.648
 -0.640  -0.637  -0.627  -0.625  -0.614  -0.613  -0.599  -0.599
 -0.594  -0.593  -0.586  -0.580  -0.577  -0.575  -0.564  -0.558
 -0.557  -0.547  -0.543  -0.538  -0.527  -0.525  -0.518  -0.513
 -0.508  -0.503  -0.498  -0.497  -0.488  -0.483  -0.482  -0.477
 -0.476  -0.474  -0.468  -0.467  -0.463  -0.459  -0.452  -0.449
 -0.446  -0.444  -0.441  -0.441  -0.437  -0.435  -0.435  -0.432
 -0.430  -0.427  -0.424  -0.422  -0.417  -0.416  -0.414  -0.414
 -0.413  -0.407  -0.406  -0.403  -0.401  -0.400  -0.398  -0.395
 -0.394  -0.392  -0.391  -0.389  -0.388  -0.385  -0.383  -0.382
 -0.382  -0.381  -0.376  -0.370  -0.368  -0.363  -0.360  -0.354
 -0.353  -0.353  -0.351  -0.349  -0.347  -0.342  -0.341  -0.340
 -0.339  -0.336  -0.334  -0.331  -0.330  -0.324  -0.323  -0.320
 -0.319  -0.316  -0.314  -0.308  -0.306  -0.302  -0.300  -0.299
 -0.296  -0.294  -0.293  -0.291  -0.288  -0.283  -0.282  -0.278
 -0.273  -0.271  -0.269  -0.265  -0.259  -0.256  -0.254  -0.252
 -0.248  -0.245  -0.236  -0.234  -0.197  -0.196
 -- Virtual --
 -0.120  -0.107  -0.080  -0.064  -0.044  -0.042  -0.038  -0.036
 -0.028  -0.023  -0.018  -0.013  -0.007  -0.003   0.000   0.002
  0.005   0.010   0.018   0.020   0.024   0.033   0.035   0.036
  0.041   0.043   0.050   0.062   0.064   0.070   0.072   0.075
  0.087   0.091   0.096   0.101   0.104   0.107   0.109   0.111
  0.113   0.115   0.115   0.117   0.118   0.122   0.122   0.127
  0.130   0.131   0.131   0.133   0.137   0.140   0.142   0.148
  0.151   0.152   0.154   0.157   0.159   0.160   0.164   0.164
  0.166   0.169   0.174   0.175   0.178   0.182   0.183   0.184
  0.188   0.189   0.190   0.195   0.196   0.197   0.202   0.203
  0.207   0.211   0.212   0.213   0.218   0.221   0.222   0.224
  0.228   0.229   0.232   0.233   0.236   0.239   0.240   0.241
  0.245   0.247   0.249   0.253   0.255   0.257   0.258   0.259
  0.263   0.265   0.267   0.269   0.270   0.274   0.276   0.281
  0.283   0.288   0.289   0.292   0.295   0.301   0.304   0.308
  0.310   0.312   0.313   0.315   0.321   0.322   0.324   0.327
  0.328   0.328   0.335   0.335   0.341   0.344   0.346   0.349
  0.354   0.360   0.362   0.364   0.366   0.370   0.373   0.375
  0.380   0.380   0.385   0.390   0.393   0.401   0.402   0.408
  0.411   0.414   0.420   0.424   0.427   0.429   0.433   0.438
  0.440   0.442   0.448   0.460   0.462   0.464   0.471   0.474
  0.476   0.483   0.484   0.489   0.491   0.497   0.498   0.500
  0.503   0.503   0.505   0.507   0.507   0.511   0.514   0.516
  0.518   0.521   0.524   0.526   0.526   0.530   0.532   0.535
  0.536   0.540   0.542   0.546   0.547   0.549   0.552   0.554
  0.557   0.559   0.560   0.562   0.562   0.567   0.569   0.570
  0.573   0.574   0.576   0.579   0.580   0.582   0.584   0.587
  0.589   0.590   0.593   0.594   0.597   0.600   0.601   0.603
  0.605   0.607   0.608   0.611   0.613   0.614   0.615   0.617
  0.620   0.622   0.625   0.626   0.628   0.629   0.630   0.633
  0.633   0.636   0.639   0.640   0.642   0.643   0.645   0.647
  0.650   0.651   0.654   0.658   0.665   0.666   0.669   0.673
  0.675   0.681   0.682   0.684   0.688   0.689   0.690   0.694
  0.697   0.701   0.702   0.707   0.710   0.715   0.718   0.721
  0.727   0.729   0.731   0.735   0.738   0.744   0.745   0.749
  0.750   0.751   0.755   0.757   0.759   0.760   0.764   0.766
  0.770   0.774   0.776   0.779   0.780   0.786   0.786   0.794
  0.796   0.800   0.802   0.802   0.806   0.809   0.811   0.813
  0.814   0.817   0.819   0.820   0.822   0.823   0.827   0.830
  0.831   0.833   0.835   0.837   0.838   0.839   0.840   0.842
  0.844   0.848   0.848   0.848   0.853   0.858   0.859   0.861
  0.862   0.864   0.865   0.867   0.868   0.872   0.874   0.876
  0.877   0.881   0.882   0.884   0.886   0.889   0.893   0.898
  0.899   0.903   0.905   0.907   0.909   0.909   0.912   0.913
  0.916   0.919   0.925   0.926   0.926   0.932   0.933   0.936
  0.937   0.941   0.943   0.944   0.947   0.948   0.950   0.952
  0.955   0.957   0.961   0.964   0.965   0.968   0.970   0.972
  0.975   0.978   0.979   0.983   0.984   0.987   0.991   0.995
  0.996   0.999   1.002   1.006   1.011   1.012   1.015   1.019
  1.021   1.021   1.024   1.027   1.029   1.031   1.036   1.040
  1.040   1.041   1.045   1.048   1.053   1.058   1.060   1.063
  1.065   1.067   1.073   1.075   1.079   1.083   1.090   1.092
  1.098   1.098   1.101   1.105   1.109   1.110   1.119   1.122
  1.128   1.135   1.138   1.141   1.145   1.146   1.149   1.153
  1.164   1.166   1.172   1.173   1.175   1.187   1.192   1.193
  1.203   1.209   1.210   1.220   1.222   1.229   1.232   1.237
  1.239   1.245   1.248   1.256   1.258   1.263   1.268   1.274
  1.276   1.277   1.285   1.287   1.293   1.298   1.301   1.308
  1.311   1.313   1.315   1.316   1.322   1.325   1.329   1.335
  1.337   1.341   1.345   1.351   1.356   1.358   1.366   1.367
  1.371   1.372   1.379   1.382   1.389   1.394   1.397   1.400
  1.408   1.411   1.417   1.422   1.426   1.428   1.432   1.438
  1.441   1.444   1.455   1.461   1.464   1.469   1.471   1.475
  1.476   1.485   1.490   1.492   1.502   1.504   1.510   1.517
  1.520   1.531   1.535   1.536   1.541   1.557   1.559   1.565
  1.574   1.579   1.583   1.587   1.592   1.600   1.602   1.612
  1.615   1.625   1.633   1.636   1.645   1.648   1.652   1.655
  1.659   1.664   1.671   1.673   1.678   1.681   1.683   1.689
  1.697   1.701   1.702   1.704   1.706   1.707   1.712   1.712
  1.714   1.720   1.721   1.726   1.730   1.740   1.743   1.752
  1.752   1.758   1.759   1.765   1.766   1.769   1.779   1.780
  1.782   1.784   1.796   1.797   1.798   1.805   1.806   1.809
  1.817   1.822   1.824   1.830   1.832   1.835   1.837   1.841
  1.848   1.856   1.857   1.860   1.863   1.866   1.871   1.874
  1.877   1.879   1.882   1.883   1.886   1.889   1.896   1.900
  1.904   1.906   1.907   1.909   1.910   1.917   1.919   1.923
  1.924   1.927   1.929   1.935   1.938   1.943   1.950   1.956
  1.958   1.960   1.964   1.975   1.978   1.988   1.992   1.996
  1.999   2.006   2.009   2.015   2.021   2.025   2.026   2.028
  2.032   2.035   2.041   2.054   2.059   2.060   2.071   2.076
  2.078   2.081   2.083   2.092   2.094   2.100   2.101   2.102
  2.110   2.111   2.116   2.117   2.118   2.123   2.129   2.131
  2.133   2.136   2.143   2.149   2.151   2.154   2.159   2.164
  2.165   2.167   2.170   2.181   2.183   2.186   2.190   2.191
  2.192   2.194   2.198   2.204   2.205   2.211   2.222   2.225
  2.227   2.230   2.233   2.235   2.238   2.242   2.251   2.255
  2.258   2.259   2.261   2.263   2.267   2.270   2.273   2.279
  2.280   2.286   2.290   2.292   2.299   2.300   2.304   2.305
  2.311   2.313   2.314   2.319   2.321   2.329   2.332   2.336
  2.339   2.342   2.348   2.351   2.354   2.357   2.359   2.364
  2.369   2.372   2.375   2.380   2.385   2.393   2.395   2.397
  2.402   2.405   2.408   2.410   2.413   2.414   2.422   2.424
  2.430   2.432   2.434   2.438   2.440   2.443   2.444   2.448
  2.451   2.455   2.458   2.460   2.461   2.465   2.468   2.476
  2.480   2.486   2.491   2.494   2.499   2.502   2.506   2.509
  2.512   2.514   2.523   2.525   2.528   2.531   2.533   2.536
  2.542   2.544   2.547   2.551   2.551   2.556   2.557   2.559
  2.568   2.573   2.578   2.580   2.592   2.596   2.597   2.599
  2.600   2.607   2.609   2.612   2.619   2.625   2.629   2.634
  2.639   2.648   2.651   2.652   2.656   2.658   2.670   2.672
  2.675   2.679   2.680   2.686   2.692   2.696   2.697   2.701
  2.705   2.709   2.714   2.720   2.725   2.728   2.736   2.738
  2.743   2.749   2.759   2.763   2.764   2.770   2.782   2.787
  2.788   2.792   2.795   2.802   2.810   2.824   2.829   2.839
  2.840   2.843   2.845   2.852   2.854   2.857   2.859   2.863
  2.873   2.883   2.886   2.893   2.902   2.907   2.908   2.914
  2.916   2.920   2.924   2.931   2.934   2.940   2.943   2.946
  2.955   2.961   2.968   2.976   2.983   2.987   2.997   3.020
  3.021   3.031   3.051   3.060   3.066   3.100   3.106   3.125
  3.150   3.172   3.175   3.183   3.200   3.202   3.233   3.234
  3.238   3.241   3.259   3.265   3.280   3.281   3.284   3.290
  3.292   3.298   3.308   3.328   3.328   3.334   3.337   3.350
  3.363   3.367   3.382   3.391   3.406   3.409   3.420   3.443
  3.448   3.452   3.473   3.483   3.494   3.530   3.533   3.541
  3.552   3.561   3.570   3.573   3.577   3.578   3.613   3.630
  3.630   3.646   3.688   3.731   3.844   3.871   3.896   3.920
  3.928   3.937   3.959   3.962   3.968   3.983   3.988   3.994
  3.998   4.060   4.072   4.077   4.081   4.102   4.107   4.120
  4.131   4.136   4.149   4.154   4.161   4.168   4.179   4.185
  4.198   4.205   4.220   4.234   4.258   4.262   4.266   4.269
  4.287   4.305   4.338   4.341   4.369   4.378   4.386   4.400
  4.435   4.444   4.463   4.471   4.479   4.481   4.484   4.488
  4.489   4.503   4.536   4.552   4.598   4.630   4.661   4.671
  4.688   4.715   4.718   4.723   4.753   4.769   4.791   4.796
 --------------------------------------------------------------
 
          Ground-State Mulliken Net Atomic Charges

     Atom                 Charge (a.u.)
  ----------------------------------------
      1 C                     0.267678
      2 C                    -0.116362
      3 N                    -0.472937
      4 C                    -0.097115
      5 C                     0.060594
      6 C                     0.058542
      7 C                     0.078863
      8 C                     0.034865
      9 C                     0.177909
     10 N                    -0.514499
     11 N                    -0.545017
     12 C                     0.220578
     13 C                     0.317340
     14 S                     0.591232
     15 N                    -0.556127
     16 C                    -0.236369
     17 S                     0.352094
     18 C                    -0.124520
     19 C                    -0.227920
     20 S                     0.317600
     21 C                     0.174304
     22 C                     0.012136
     23 C                    -0.327988
     24 C                    -0.072965
     25 N                    -0.386927
     26 S                     0.265057
     27 C                     0.111971
     28 C                    -0.296278
     29 C                    -0.226710
     30 H                     0.098751
     31 H                     0.102365
     32 H                     0.127649
     33 H                     0.090184
     34 H                     0.138076
     35 H                     0.103182
     36 H                     0.116584
     37 H                     0.135220
     38 H                     0.112996
     39 C                    -0.176414
     40 H                     0.106245
     41 H                     0.095601
     42 H                     0.114654
     43 C                    -0.199534
     44 H                     0.091373
     45 C                    -0.178921
     46 H                     0.101226
     47 H                     0.090908
     48 H                     0.093203
     49 C                    -0.179726
     50 H                     0.097674
     51 C                    -0.334387
     52 H                     0.094392
     53 H                     0.101016
     54 H                     0.096426
     55 H                     0.101203
     56 C                     0.281041
     57 C                    -0.110337
     58 N                    -0.477138
     59 C                    -0.083585
     60 C                     0.044660
     61 C                     0.033544
     62 C                     0.030170
     63 C                     0.046255
     64 C                     0.229659
     65 N                    -0.528301
     66 N                    -0.560559
     67 C                     0.229086
     68 C                     0.297257
     69 S                     0.621145
     70 N                    -0.571597
     71 C                    -0.231600
     72 S                     0.322256
     73 C                    -0.118941
     74 C                    -0.252397
     75 S                     0.284928
     76 C                     0.190252
     77 C                     0.079738
     78 C                    -0.315217
     79 C                    -0.051742
     80 N                    -0.449641
     81 S                     0.253538
     82 C                     0.142360
     83 C                    -0.307857
     84 C                    -0.235963
     85 H                     0.096511
     86 H                     0.133508
     87 H                     0.113027
     88 H                     0.118143
     89 H                     0.132106
     90 H                     0.127832
     91 H                     0.124002
     92 H                     0.134001
     93 H                     0.120176
     94 C                    -0.182338
     95 H                     0.101583
     96 H                     0.092142
     97 H                     0.101728
     98 C                    -0.204403
     99 H                     0.088724
    100 C                    -0.153889
    101 H                     0.107556
    102 H                     0.092783
    103 H                     0.103173
    104 C                    -0.195918
    105 H                     0.089902
    106 C                    -0.318262
    107 H                     0.103512
    108 H                     0.104572
    109 H                     0.099720
    110 H                     0.100118
  ----------------------------------------
  Sum of atomic charges =     0.000000

 -----------------------------------------------------------------
                    Cartesian Multipole Moments
 -----------------------------------------------------------------
    Charge (ESU x 10^10)
                 0.0000
    Dipole Moment (Debye)
         X      -4.5700      Y       1.8269      Z       2.4589
       Tot       5.5017
    Quadrupole Moments (Debye-Ang)
        XX    -382.5583     XY     -17.3267     YY    -450.0695
        XZ       3.3149     YZ      -9.1183     ZZ    -444.0342
    Octopole Moments (Debye-Ang^2)
       XXX    -662.2130    XXY      21.1721    XYY    -208.0721
       YYY      71.5578    XXZ     152.5461    XYZ     -25.6419
       YYZ     -36.4164    XZZ     -23.0584    YZZ      38.7512
       ZZZ      15.7627
    Hexadecapole Moments (Debye-Ang^3)
      XXXX  -65372.3632   XXXY     -51.5279   XXYY  -15934.7083
      XYYY    -661.9791   YYYY  -27933.7620   XXXZ    -883.7493
      XXYZ    -568.7701   XYYZ     150.8138   YYYZ    -499.1776
      XXZZ  -13811.7418   XYZZ     146.6523   YYZZ   -6078.2539
      XZZZ     262.1853   YZZZ    -179.2969   ZZZZ   -9653.8108
 -----------------------------------------------------------------
Archival summary:
1\1\mn426\SP\ProcedureUnspecified\6-31G**\8105042\afmv_a\SatOct601:11:472018SatOct601:11:472018\0\\#,ProcedureUnspecified,6-31G**,\\0,1\S\C,1,1.77098\H,2,1.08199,1,109.748\C,2,1.39588,1,115.154,3,175.433,0\H,4,1.08368,2,126.083,1,178.203,0\C,4,1.42651,2,111.92,1,-2.22391,0\C,6,1.36517,4,134.387,2,177.681,0\C,6,1.36864,4,111.158,2,2.86351,0\C,8,1.38516,6,114.588,4,171.48,0\C,7,1.44895,6,123.652,4,2.94471,0\N,10,1.32175,7,115.459,6,136.807,0\C,11,1.37733,10,110.23,7,-173.079,0\H,12,1.08164,11,119.741,10,167.025,0\C,12,1.38313,11,113.665,10,-20.4273,0\H,14,1.08251,12,124.982,11,-169.861,0\C,9,1.49204,8,124.208,6,-177.083,0\N,16,1.28832,9,120.498,8,-26.7191,0\C,17,1.32715,16,121.31,9,-178.965,0\H,18,1.089,17,116.906,16,175.906,0\C,18,1.39315,17,127.521,16,-13.2839,0\C,20,1.3809,18,110.327,17,15.6317,0\N,21,1.35349,20,121.885,18,169.413,0\C,21,1.42331,20,123.015,18,-12.0984,0\N,23,1.32261,21,114.29,20,-174.296,0\C,20,1.51587,18,119.871,17,-174.813,0\C,25,1.38246,20,123.083,18,-153.964,0\H,26,1.08923,25,120.408,20,9.01443,0\N,26,1.3657,25,125.391,20,179.76,0\C,28,1.33611,26,116.25,25,4.08128,0\C,29,1.38442,28,123.269,26,-1.17621,0\H,30,1.08658,29,120.367,28,-177.329,0\C,25,1.41118,20,118.545,18,37.8189,0\H,32,1.08582,25,126.036,20,-10.3824,0\C,29,1.5473,28,117.008,26,-167.269,0\H,34,1.09668,29,107.092,28,-50.2558,0\H,34,1.09746,29,112.198,28,-177.375,0\C,34,1.56173,29,111.621,28,71.6609,0\H,37,1.09655,34,116.99,29,-171.359,0\H,37,1.09756,34,108.977,29,-48.2501,0\C,37,1.57316,34,114.511,29,65.7252,0\H,40,1.09675,37,112.061,34,-66.328,0\H,40,1.0973,37,112.075,34,49.6467,0\C,40,1.59054,37,111.868,34,164.473,0\H,43,1.09656,40,112.633,37,-40.6503,0\H,43,1.09688,40,106.046,37,78.5697,0\C,43,1.53888,40,119.373,37,-162.853,0\H,46,1.09695,43,111.425,40,-167.594,0\H,46,1.09765,43,108.054,40,71.9945,0\C,46,1.51749,43,116.574,40,-53.9994,0\H,49,1.09654,46,110.62,43,-143.585,0\H,49,1.09696,46,111.671,43,-34.6135,0\H,49,1.09743,46,123.053,43,91.068,0\S,22,1.62515,21,102.625,20,169.6,0\S,14,1.73041,12,111.749,11,20.7749,0\S,7,1.76635,6,110.947,4,-169.31,0\H,48,2.02248,46,138.519,43,-80.8689,0\C,56,1.09664,48,127.606,46,159.606,0\H,57,1.09696,56,98.8142,48,-1.65722,0\C,57,1.5427,56,115.631,48,-117.423,0\H,59,1.09623,57,104.918,56,-172.508,0\H,59,1.09705,57,110.765,56,-52.0704,0\C,59,1.53213,57,114.25,56,71.2798,0\H,62,1.09689,59,111.858,57,-52.5567,0\H,62,1.09765,59,108.667,57,63.7988,0\C,62,1.54426,59,111.786,57,-174.417,0\H,65,1.09671,62,112.763,59,74.1945,0\H,65,1.09683,62,115.61,59,-47.3581,0\H,65,1.09781,62,107.156,59,-161.375,0\C,57,1.57735,56,109.559,48,110.767,0\H,69,1.09642,57,112.7,56,-173.004,0\H,69,1.09644,57,103.296,56,-52.6076,0\C,69,1.57816,57,119.062,56,61.4053,0\H,72,1.09731,69,106.356,57,126.565,0\H,72,1.09765,69,104.925,57,-119.967,0\C,72,1.50338,69,117.175,57,-1.79254,0\N,75,1.33612,72,113.752,69,107.378,0\C,76,1.38445,75,116.365,72,179.206,0\H,77,1.08913,76,115.131,75,-160.98,0\C,75,1.4113,72,122.097,69,-69.7665,0\H,79,1.08653,75,122.717,72,-12.153,0\C,79,1.41073,75,121.379,72,-173.451,0\H,81,1.08642,79,124.859,75,171.168,0\C,77,1.43836,76,123.048,75,-5.19191,0\C,83,1.52554,77,120.619,76,-173.094,0\C,84,1.38666,83,115.866,77,-16.2763,0\H,85,1.08912,84,120.27,83,-10.2911,0\N,85,1.35055,84,124.858,83,163.564,0\C,87,1.39184,85,119.671,84,1.82601,0\C,84,1.42353,83,126.272,77,145.786,0\N,89,1.33313,84,120.966,83,17.5016,0\C,89,1.38089,84,122.024,83,-164.53,0\N,91,1.37042,89,114.349,84,-174.838,0\C,88,1.48264,87,117.472,85,176.076,0\C,93,1.38653,88,126.806,87,2.33587,0\C,94,1.33173,93,115.839,88,167.415,0\C,95,1.36729,94,117.277,93,-0.916323,0\C,95,1.43554,94,111.148,93,-174.966,0\H,97,1.08492,95,125.664,94,174.913,0\C,97,1.38075,95,112.658,94,1.67597,0\H,99,1.08254,97,131.04,95,-167.679,0\C,96,1.45252,95,127.855,94,-174.545,0\N,101,1.32536,96,115.375,95,-0.815005,0\C,102,1.37851,101,111.208,96,-178.931,0\H,103,1.08229,102,125.408,101,-165.065,0\C,103,1.36711,102,114.3,101,1.24476,0\H,105,1.08239,103,130.922,102,-176.948,0\S,90,1.64216,89,103.979,84,177.248,0\S,94,1.74147,93,127.99,88,-5.69975,0\S,101,1.75591,96,127.244,95,-177.338,0\S,96,1.76306,95,107.483,94,2.30461,0\\\@

 Total job time:  105.60s(wall), 1187.44s(cpu) 
 Sat Oct  6 01:11:47 2018

        *************************************************************
        *                                                           *
        *  Thank you very much for using Q-Chem.  Have a nice day.  *
        *                                                           *
        *************************************************************


