
Running Job 1 of 1 ./9/7.qcin
qchem ./9/7.qcin_28285.0 /tmpu/cab_g/afmv_a/scratch_qchem/qchem28285/ 1
/tmpu/appuserlic/qchem4.4/serial-multicore/exe/qcprog.exe_s ./9/7.qcin_28285.0 /tmpu/cab_g/afmv_a/scratch_qchem/qchem28285/
Check license passed

                  Welcome to Q-Chem
     A Quantum Leap Into The Future Of Chemistry


 Q-Chem 4.4, Q-Chem, Inc., Pleasanton, CA (2016)

 Y. Shao,  Z. Gan,  E. Epifanovsky,  A. T. B. Gilbert,  M. Wormit,  
 J. Kussmann,  A. W. Lange,  A. Behn,  J. Deng,  X. Feng,  D. Ghosh,  
 M. Goldey,  P. R. Horn,  L. D. Jacobson,  I. Kaliman,  F. Rob,  
 R. Z. Khaliullin,  T. Kus,  A. Landau,  J. Liu,  E. I. Proynov,  Y. M. Rhee,  
 R. M. Richard,  M. A. Rohrdanz,  R. P. Steele,  E. J. Sundstrom,  
 H. L. Woodcock III,  P. M. Zimmerman,  D. Zuev,  B. Albrecht,  E. Alguire,  
 B. Austin,  S. A. Baeppler,  G. J. O. Beran,  Y. A. Bernard,  E. Berquist,  
 K. Brandhorst,  K. B. Bravaya,  S. T. Brown,  D. Casanova,  C.-M. Chang,  
 Y. Chen,  S. H. Chien,  K. D. Closser,  M. P. Coons,  D. L. Crittenden,  
 S. Dasgupta,  M. Diedenhofen,  R. A. DiStasio Jr.,  H. Do,  A. D. Dutoi,  
 R. G. Edgar,  P.-T. Fang,  S. Fatehi,  Q. Feng,  L. Fusti-Molnar,  
 A. Ghysels,  A. Golubeva-Zadorozhnaya,  J. Gomes,  A. Gunina,  
 M. W. D. Hanson-Heine,  P. H. P. Harbach,  A. W. Hauser,  J. E. Herr,  
 E. G. Hohenstein,  Z. C. Holden,  K. Hui,  T.-C. Jagau,  H. Ji,  B. Kaduk,  
 K. Khistyaev,  Jaehoon Kim,  Jihan Kim,  R. A. King,  P. Klunzinger,  
 K. Koh,  D. Kosenkov,  T. Kowalczyk,  C. M. Krauter,  A. Kunitsa,  
 K. U. Lao,  A. Laurent,  K. V. Lawler,  J. Lee,  D. Lefrancois,  S. Lehtola,  
 S. V. Levchenko,  C. Y. Lin,  Y.-S. Lin,  F. Liu,  E. Livshits,  
 R. C. Lochan,  A. Luenser,  P. Manohar,  S. F. Manzer,  S.-P. Mao,  Y. Mao,  
 N. Mardirossian,  A. V. Marenich,  L. A. Martinez-Martinez,  S. A. Maurer,  
 N. J. Mayhall,  J.-M. Mewes,  A. F. Morrison,  K. Nanda,  T. S. Nguyen-Beck,  
 C. M. Oana,  R. Olivares-Amaya,  D. P. O'Neill,  J. A. Parkhill,  
 T. M. Perrine,  R. Peverati,  P. A. Pieniazek,  F. Plasser,  A. Prociuk,  
 D. R. Rehn,  E. Rosta,  N. J. Russ,  N. Sergueev,  S. M. Sharada,  
 S. Sharma,  D. W. Small,  A. Sodt,  T. Stauch,  T. Stein,  D. Stuck,  
 Y.-C. Su,  A. J. W. Thom,  T. Tsuchimochi,  L. Vogt,  O. Vydrov,  T. Wang,  
 M. A. Watson,  J. Wenzel,  A. White,  C. F. Williams,  V. Vanovschi,  
 K. Yao,  S. Yeganeh,  S. R. Yost,  Z.-Q. You,  I. Y. Zhang,  X. Zhang,  
 Y. Zhao,  B. R. Brooks,  G. K. L. Chan,  D. M. Chipman,  C. J. Cramer,  
 W. A. Goddard III,  M. S. Gordon,  W. J. Hehre,  A. Klamt,  
 H. F. Schaefer III,  M. W. Schmidt,  C. D. Sherrill,  D. G. Truhlar,  
 A. Warshel,  X. Xu,  A. Aspuru-Guzik,  R. Baer,  A. T. Bell,  N. A. Besley,  
 J.-D. Chai,  A. Dreuw,  B. D. Dunietz,  T. R. Furlani,  S. R. Gwaltney,  
 C.-P. Hsu,  Y. Jung,  J. Kong,  D. S. Lambrecht,  W. Liang,  C. Ochsenfeld,  
 V. A. Rassolov,  L. V. Slipchenko,  J. E. Subotnik,  T. Van Voorhis,  
 J. M. Herbert,  A. I. Krylov,  P. M. W. Gill,  M. Head-Gordon

 Contributors to earlier versions of Q-Chem not listed above: 
 R. D. Adamson,  J. Baker,  E. F. C. Byrd,  A. K. Chakraborty,  C.-L. Cheng,  
 H. Dachsel,  R. J. Doerksen,  G. Hawkins,  A. Heyden,  S. Hirata,  
 G. Kedziora,  F. J. Keil,  C. Kelley,  P. P. Korambath,  W. Kurlancheek,  
 A. M. Lee,  M. S. Lee,  D. Liotard,  I. Lotan,  P. E. Maslen,  N. Nair,  
 D. Neuhauser,  R. Olson,  B. Peters,  J. Ritchie,  N. E. Schultz,  
 N. Shenvi,  A. C. Simmonett,  K. S. Thanthiriwatte,  Q. Wu,  W. Zhang

 Please cite Q-Chem as follows:
 Y. Shao et al., Mol. Phys. 113, 184-215 (2015)
 DOI: 10.1080/00268976.2014.952696

 Q-Chem 4.4.2 for Intel X86 Linux

 Parts of Q-Chem use Armadillo 5.200.1 (Boston Tea Smuggler).
 http://arma.sourceforge.net/

 Q-Chem begins on Sat Oct  6 02:59:42 2018  

Host: 
0

     Scratch files written to /tmpu/cab_g/afmv_a/scratch_qchem/qchem28285//
 Dec716 11556_ 22328  22283 4050   
Processing $rem in /tmpu/appuserlic/qchem4.4/serial-multicore/config/preferences.
 MEM_TOTAL  2000 
FILE_GEOM_ORG=        593

Checking the input file for inconsistencies... 	...done.

--------------------------------------------------------------
User input:
--------------------------------------------------------------
$comment
SP
$end

$rem
MEM_STATIC 5000
MEM_TOTAL 20000
JOBTYPE SP
EXCHANGE B3LYP
BASIS 6-31g(d,p)
$end

$molecule
0 1
C          15.497000     16.387000    -14.884000
C          15.357000     17.572000    -14.182000
N          14.467000     15.598000    -15.203000
C          14.045000     18.072000    -13.882000
C          13.231000     16.033000    -14.818000
C          12.979000     17.166000    -14.067000
C          11.583000     17.598000    -13.664000
C          11.399000     18.370000    -12.519000
C          10.367000     17.150000    -14.141000
N          10.268000     18.908000    -12.080000
N          10.282000     16.213000    -15.114000
C           9.119000     17.653000    -13.677000
C           9.127000     18.555000    -12.563000
S           8.705000     16.249000    -15.505000
N           8.068000     17.190000    -14.333000
C           7.865000     19.155000    -12.040000
S           6.254000     18.412000    -12.097000
C           7.781000     20.411000    -11.462000
C           5.566000     19.828000    -11.296000
S           9.057000     21.675000    -11.271000
C           6.515000     20.791000    -11.107000
C           4.155000     20.029000    -11.035000
C           7.753000     22.736000    -10.714000
C           6.482000     22.159000    -10.704000
N           3.545000     19.035000    -10.413000
S           3.049000     21.384000    -11.536000
C           2.258000     19.398000    -10.083000
C           1.771000     20.456000    -10.829000
C          16.915000     15.786000    -15.033000
H          16.232000     18.156000    -13.910000
H          14.001000     19.006000    -13.330000
H          12.433000     15.322000    -15.028000
H          12.316000     18.670000    -12.014000
H           8.166000     23.679000    -10.381000
H           5.559000     22.653000    -10.424000
H           1.690000     18.791000     -9.391000
H           0.741000     20.789000    -10.835000
H          16.976000     15.349000    -16.037000
C          17.205000     14.716000    -13.933000
H          17.701000     16.514000    -14.795000
H          18.125000     14.129000    -14.040000
H          16.358000     14.020000    -13.880000
C          17.266000     15.286000    -12.468000
H          17.920000     16.164000    -12.394000
C          17.942000     14.258000    -11.460000
H          16.292000     15.661000    -12.131000
H          18.811000     13.750000    -11.895000
H          17.172000     13.513000    -11.225000
C          18.452000     14.761000    -10.098000
H          18.689000     13.927000     -9.426000
C          17.455000     15.512000     -9.235000
H          19.355000     15.360000    -10.273000
H          17.333000     16.602000     -9.272000
H          17.607000     15.276000     -8.175000
H          16.439000     15.115000     -9.351000
C           1.271000     13.768000    -15.587000
C           2.139000     14.897000    -15.840000
N           1.654000     12.738000    -14.726000
C           3.317000     15.063000    -15.097000
C           2.820000     12.922000    -14.098000
C           3.694000     14.044000    -14.213000
C           4.903000     14.115000    -13.427000
C           6.037000     13.687000    -14.042000
C           5.152000     14.582000    -12.089000
N           7.288000     13.841000    -13.570000
N           4.127000     14.922000    -11.266000
C           6.417000     14.707000    -11.547000
C           7.530000     14.362000    -12.337000
S           4.875000     15.348000     -9.861000
N           6.412000     15.234000    -10.293000
C           8.901000     14.617000    -11.936000
S           9.411000     15.749000    -10.618000
C          10.098000     14.095000    -12.434000
C          11.093000     15.528000    -10.806000
S          10.260000     12.954000    -13.696000
C          11.230000     14.632000    -11.865000
C          12.135000     16.251000    -10.132000
C          12.013000     12.957000    -13.334000
C          12.362000     13.889000    -12.427000
N          13.373000     16.171000    -10.546000
S          11.812000     17.313000     -8.783000
C          14.141000     17.118000     -9.828000
C          13.419000     17.865000     -8.911000
C          -0.028000     13.589000    -16.366000
H           1.837000     15.605000    -16.605000
H           3.946000     15.919000    -15.324000
H           3.114000     12.059000    -13.502000
H           5.959000     13.334000    -15.069000
H          12.665000     12.388000    -13.985000
H          13.383000     14.110000    -12.137000
H          15.180000     17.262000    -10.096000
H          13.747000     18.724000     -8.341000
H           0.283000     14.014000    -17.329000
C          -1.261000     14.285000    -15.805000
H          -0.221000     12.517000    -16.491000
H          -1.088000     14.439000    -14.732000
H          -2.172000     13.675000    -15.823000
C          -1.622000     15.578000    -16.488000
H          -0.846000     16.242000    -16.089000
C          -3.055000     16.051000    -16.056000
H          -1.608000     15.437000    -17.576000
H          -3.254000     16.014000    -14.978000
H          -3.754000     15.264000    -16.365000
C          -3.668000     17.310000    -16.722000
H          -4.718000     17.408000    -16.418000
C          -3.539000     17.321000    -18.201000
H          -3.180000     18.257000    -16.462000
H          -2.574000     16.998000    -18.611000
H          -3.675000     18.327000    -18.617000
H          -4.296000     16.715000    -18.714000
$end

--------------------------------------------------------------
 ----------------------------------------------------------------
             Standard Nuclear Orientation (Angstroms)
    I     Atom           X                Y                Z
 ----------------------------------------------------------------
    1      C       6.8908810734    -1.7710638041    -2.9082019574
    2      C       6.8330690857    -0.3879049020    -2.9207807257
    3      N       5.8480865580    -2.5454132605    -2.5949217025
    4      C       5.5751430263     0.2747576789    -2.7211702726
    5      C       4.6815321958    -1.8983264524    -2.3023886567
    6      C       4.5233882899    -0.5269211403    -2.2286867244
    7      C       3.2023730420     0.1368553127    -1.8937710105
    8      C       3.1896870300     1.4027630644    -1.3122371514
    9      C       1.9384813064    -0.4185089155    -1.8615645699
   10      N       2.1323350599     2.1592019904    -1.0455295167
   11      N       1.7206938567    -1.7183987736    -2.1694249010
   12      C       0.7712550346     0.3284110897    -1.5367533382
   13      C       0.9382015761     1.6768978729    -1.0802708656
   14      S       0.0999472405    -1.7949591420    -2.2612122429
   15      N      -0.3599105427    -0.3433367443    -1.6728609587
   16      C      -0.2359989757     2.5379972054    -0.7547958226
   17      S      -1.8082590303     1.9753315397    -0.1531109637
   18      C      -0.2619547916     3.9133499239    -0.9172987311
   19      C      -2.3966610931     3.6403846088    -0.1159318093
   20      S       0.9859760229     5.0097582809    -1.6264604876
   21      C      -1.4613404878     4.4998329737    -0.6161466367
   22      C      -3.7489371703     4.0344422730     0.2239372366
   23      C      -0.2389030806     6.2833210545    -1.5077379394
   24      C      -1.4703361588     5.8759288414    -0.9919141724
   25      N      -4.2120635187     3.5512850197     1.3637148702
   26      S      -4.9674431925     4.9934039955    -0.7278492355
   27      C      -5.4358105468     4.1115444225     1.6562736043
   28      C      -6.0763422067     4.6518628440     0.5558990335
   29      C       8.2820759534    -2.4473031324    -2.9456609585
   30      H       7.7219267186     0.1970626000    -3.1408037471
   31      H       5.5947083424     1.3601805352    -2.7428594688
   32      H       3.8831643370    -2.5636790187    -1.9762909341
   33      H       4.1686280515     1.8652525162    -1.1952244027
   34      H       0.1934641964     7.2339252039    -1.7907879156
   35      H      -2.3482732532     6.4991161038    -0.8685079560
   36      H      -5.8583623076     3.9915391385     2.6446994949
   37      H      -7.1028209909     4.9953338980     0.5419727732
   38      H       8.1865212190    -3.3470638505    -3.5653430890
   39      C       8.7888598862    -2.8008491104    -1.5113753220
   40      H       9.0728067861    -1.7521304474    -3.2553441646
   41      H       9.6961591765    -3.4126151113    -1.4408887427
   42      H       7.9862460133    -3.3130877108    -0.9654297320
   43      C       9.0782639566    -1.5547249327    -0.5958067458
   44      H       9.7063140813    -0.8094857298    -1.1000364271
   45      C       9.9483281119    -1.9443321356     0.6773855387
   46      H       8.1636248518    -0.9998556749    -0.3540932487
   47      H      10.7472983084    -2.6570486034     0.4404639030
   48      H       9.2539647108    -2.4079441896     1.3887738509
   49      C      10.6647689675    -0.8366036367     1.4697257896
   50      H      11.0392001632    -1.2096543591     2.4309455554
   51      C       9.8042110790     0.3141865881     1.9574767290
   52      H      11.5050662502    -0.4740269790     0.8636947310
   53      H       9.6421635567     1.2295190819     1.3741586114
   54      H      10.1410430531     0.6576379920     2.9428626201
   55      H       8.7967560702    -0.0215818066     2.2324585290
   56      C      -7.1556076965    -3.4908411605     0.1692913542
   57      C      -6.3803031563    -2.7160279168    -0.7744465900
   58      N      -6.5989714080    -3.9408917471     1.3678406906
   59      C      -5.0996110145    -2.2592868093    -0.4302022019
   60      C      -5.3501505786    -3.5281558352     1.6084474301
   61      C      -4.5453517384    -2.6876009634     0.7827650854
   62      C      -3.2237424097    -2.2911183331     1.2078160311
   63      C      -2.1968157713    -3.0460850111     0.7357863769
   64      C      -2.7672807764    -1.2104900985     2.0410143244
   65      N      -0.8896887769    -2.7455600043     0.8480572137
   66      N      -3.6487614230    -0.4284610250     2.7155337072
   67      C      -1.4335689141    -0.8989388887     2.2247601053
   68      C      -0.4596570327    -1.6734009591     1.5662784058
   69      S      -2.6880896610     0.6215870709     3.5459033610
   70      N      -1.2434822278     0.2044832029     2.9971568553
   71      C       0.9503579308    -1.3314238289     1.5468762108
   72      S       1.6388019797     0.2883525355     1.9723375142
   73      C       2.0622140489    -2.1091232434     1.2118290598
   74      C       3.2710300536    -0.1012651120     1.6603461623
   75      S       2.0454836725    -3.7486462703     0.7296949099
   76      C       3.2560255622    -1.4248458258     1.2233393439
   77      C       4.3878821923     0.8015911173     1.6764994785
   78      C       3.8334138757    -3.6648825480     0.7484359657
   79      C       4.3002433778    -2.4199502298     0.9612451267
   80      N       5.5399003406     0.4411989069     1.1730993984
   81      S       4.2633273603     2.4292524136     2.2987364094
   82      C       6.3869817901     1.5744197671     1.1525933079
   83      C       5.8065776920     2.7330915334     1.6432997588
   84      C      -8.5611568027    -3.9699967876    -0.1787382351
   85      H      -6.8303844339    -2.4947196018    -1.7368095534
   86      H      -4.5464098072    -1.6884079228    -1.1704533222
   87      H      -4.9314874438    -3.9690678411     2.5121834438
   88      H      -2.4359270165    -3.8778565015     0.0751775667
   89      H       4.3840685979    -4.5289348060     0.3979233805
   90      H       5.3478217932    -2.1433299403     0.9232625122
   91      H       7.3603694038     1.4930442403     0.6857147614
   92      H       6.1980719228     3.7412375527     1.6161175751
   93      H      -8.4316769342    -4.1305105321    -1.2567852199
   94      C      -9.7034966342    -3.0091800651     0.1234486858
   95      H      -8.7373999239    -4.9352406472     0.3104454253
   96      H      -9.3565205735    -2.3284991065     0.9116460252
   97      H     -10.5839785154    -3.4814075675     0.5752205783
   98      C     -10.2169296260    -2.2438226513    -1.0678840100
   99      H      -9.4067101955    -1.5183973493    -1.2077968603
  100      C     -11.5708225868    -1.5277517986    -0.7242877579
  101      H     -10.3826678994    -2.9327814461    -1.9055519656
  102      H     -11.5831923462    -0.9840418063     0.2282249367
  103      H     -12.2859441499    -2.3155379231    -0.4569954609
  104      C     -12.3284959229    -0.7669364746    -1.8429910959
  105      H     -13.3145326030    -0.4602405000    -1.4712529558
  106      C     -12.4520950810    -1.5378621156    -3.1057657806
  107      H     -11.8347365374     0.1443355086    -2.2012340885
  108      H     -11.5603748425    -2.0860680412    -3.4343373548
  109      H     -12.6893314287    -0.8910358380    -3.9595354696
  110      H     -13.2647874095    -2.2746533756    -3.0946384100
 ----------------------------------------------------------------
 Molecular Point Group                 C1    NOp =  1
 Largest Abelian Subgroup              C1    NOp =  1
 Nuclear Repulsion Energy = 12730.1378463304 hartrees
 There are      270 alpha and      270 beta electrons
 Requested basis set is 6-31G(d,p)
 There are 406 shells and 1262 basis functions

 Total QAlloc Memory Limit  20000 MB
 Mega-Array Size      4888 MB
 MEM_STATIC part      5000 MB
 A cutoff of  1.0D-08 yielded  15755 shell pairs
 There are    169761 function pairs
 
 -------------------------------------------------------
 OpenMP Integral Computing Module                       
 Release: version 1.0, May 2013, Q-Chem Inc. Pittsburgh 
 -------------------------------------------------------
 Integral Job Info:
 Integral job number is                      11
 Integral operator is                         1
 short-range coefficients                     0
 long-range coefficients              100000000
 Omega coefficients                           0
 if combine SR and LR in K                    0
 Integral screening is                        0
 Integral computing path is                   2
 max size of driver memory is            800000
 size of driver memory is                593474
 size of scratch memory is             15166112
 max col of scratch BK array               1296
 max len of scratch array in speh3          155
 max len of scratch index in speh4           18
 max int batch size is                      520
 min int batch size is                       52
 fixed nKL is                                52
 max L of basis functions is                  2
 order of int derivative is                   0
 number of shells is                        406
 number of basis is                        1262
 number of cartesian basis is              1262
 number of contracted shell pairs         15755
 number of primitive shell pairs          48395
 maxK2 (contraction) of shell pair           36
 max number of K2 of shell pair               1
 max number of CS2 of shell pair           1848
 max number of PS2 of shell pair           9708
 mem total for path MDJ                  390616
 -------------------------------------------------------
 Smallest overlap matrix eigenvalue = 3.59E-04

 Scale SEOQF with 1.000000e-02/1.000000e-02/1.000000e-01

 Standard Electronic Orientation quadrupole field applied
 Nucleus-field energy     =    -0.0000000868 hartrees
 Guess from superposition of atomic densities
 Warning:  Energy on first SCF cycle will be non-variational
 A restricted hybrid HF-DFT SCF calculation will be
 performed using Pulay DIIS extrapolation
 Exchange:     0.2000 Hartree-Fock + 0.0800 Slater + 0.7200 B88
 Correlation:  0.1900 VWN1RPA + 0.8100 LYP
 Using SG-1 standard quadrature grid
 SCF converges when DIIS error is below 1.0E-05
 using 16 threads for integral computing 
 -------------------------------------------------------
 OpenMP BLAS3 based DFT computing Module                
 Release: version 1.0, May 2013, Q-Chem Inc. Pittsburgh 
 -------------------------------------------------------
 ---------------------------------------
  Cycle       Energy         DIIS Error
 ---------------------------------------
    1   -5680.3661354019      2.16E-02
    2   -5662.4891597043      2.15E-03
    3   -5661.2018019973      3.26E-03
    4   -5663.3524864637      8.14E-04
    5   -5663.4630642329      3.75E-04
    6   -5663.4803733992      2.39E-04
    7   -5663.4910175140      7.37E-05
    8   -5663.4919616250      2.54E-05
    9   -5663.4920824881      7.99E-06 Convergence criterion met
 ---------------------------------------
 SCF time:  CPU 1172.21 s  wall 107.14 s
 SCF   energy in the final basis set = -5663.4920824881
 Total energy in the final basis set = -5663.4920824881
 
 --------------------------------------------------------------
 
                    Orbital Energies (a.u.)
 --------------------------------------------------------------
 
 Alpha MOs
 -- Occupied --
-88.981 -88.977 -88.932 -88.927 -88.926 -88.921 -88.909 -88.902
-14.381 -14.379 -14.375 -14.373 -14.348 -14.348 -14.343 -14.340
-14.332 -14.326 -10.273 -10.271 -10.261 -10.257 -10.249 -10.247
-10.247 -10.246 -10.241 -10.240 -10.237 -10.237 -10.235 -10.234
-10.233 -10.232 -10.232 -10.231 -10.229 -10.227 -10.226 -10.224
-10.224 -10.223 -10.216 -10.215 -10.214 -10.213 -10.213 -10.212
-10.211 -10.210 -10.207 -10.205 -10.203 -10.202 -10.196 -10.189
-10.187 -10.185 -10.181 -10.181 -10.181 -10.180 -10.179 -10.179
-10.178 -10.177 -10.170 -10.168  -8.037  -8.032  -7.992  -7.988
 -7.985  -7.981  -7.968  -7.962  -6.002  -5.997  -5.996  -5.995
 -5.992  -5.990  -5.956  -5.953  -5.952  -5.950  -5.949  -5.949
 -5.946  -5.945  -5.945  -5.942  -5.941  -5.938  -5.933  -5.929
 -5.927  -5.924  -5.923  -5.918  -1.038  -1.034  -0.972  -0.971
 -0.969  -0.952  -0.934  -0.927  -0.914  -0.913  -0.907  -0.896
 -0.846  -0.841  -0.833  -0.832  -0.816  -0.811  -0.807  -0.806
 -0.798  -0.798  -0.794  -0.793  -0.785  -0.779  -0.771  -0.764
 -0.750  -0.746  -0.741  -0.739  -0.724  -0.720  -0.712  -0.704
 -0.693  -0.692  -0.671  -0.670  -0.655  -0.653  -0.644  -0.637
 -0.634  -0.633  -0.625  -0.624  -0.614  -0.612  -0.598  -0.596
 -0.594  -0.592  -0.580  -0.579  -0.575  -0.574  -0.566  -0.559
 -0.549  -0.545  -0.541  -0.541  -0.523  -0.521  -0.517  -0.511
 -0.505  -0.503  -0.498  -0.496  -0.489  -0.481  -0.481  -0.478
 -0.475  -0.470  -0.467  -0.464  -0.459  -0.456  -0.450  -0.448
 -0.443  -0.442  -0.441  -0.440  -0.438  -0.436  -0.432  -0.431
 -0.428  -0.426  -0.424  -0.423  -0.419  -0.415  -0.414  -0.414
 -0.412  -0.407  -0.402  -0.400  -0.398  -0.396  -0.394  -0.393
 -0.392  -0.390  -0.388  -0.387  -0.385  -0.384  -0.383  -0.382
 -0.378  -0.376  -0.369  -0.368  -0.367  -0.361  -0.356  -0.353
 -0.352  -0.350  -0.348  -0.347  -0.345  -0.339  -0.338  -0.338
 -0.336  -0.332  -0.330  -0.329  -0.328  -0.325  -0.321  -0.319
 -0.314  -0.311  -0.307  -0.307  -0.303  -0.302  -0.301  -0.300
 -0.296  -0.294  -0.292  -0.287  -0.286  -0.283  -0.280  -0.277
 -0.268  -0.267  -0.265  -0.258  -0.253  -0.252  -0.251  -0.247
 -0.244  -0.242  -0.239  -0.231  -0.198  -0.194
 -- Virtual --
 -0.107  -0.100  -0.071  -0.063  -0.044  -0.036  -0.028  -0.023
 -0.020  -0.020  -0.010  -0.006  -0.002   0.002   0.003   0.005
  0.009   0.014   0.019   0.024   0.028   0.034   0.039   0.040
  0.042   0.051   0.063   0.068   0.071   0.074   0.088   0.092
  0.095   0.096   0.101   0.102   0.105   0.107   0.109   0.111
  0.112   0.114   0.115   0.116   0.119   0.122   0.123   0.125
  0.127   0.131   0.134   0.136   0.139   0.141   0.142   0.142
  0.145   0.150   0.154   0.156   0.158   0.159   0.163   0.163
  0.164   0.169   0.169   0.172   0.172   0.175   0.183   0.184
  0.187   0.188   0.189   0.193   0.196   0.196   0.198   0.202
  0.204   0.209   0.210   0.211   0.215   0.216   0.219   0.223
  0.227   0.229   0.230   0.232   0.234   0.238   0.241   0.243
  0.245   0.247   0.250   0.251   0.259   0.260   0.262   0.263
  0.265   0.269   0.273   0.276   0.277   0.277   0.278   0.281
  0.284   0.287   0.291   0.296   0.299   0.301   0.305   0.307
  0.309   0.312   0.314   0.318   0.320   0.321   0.323   0.325
  0.328   0.329   0.332   0.338   0.344   0.346   0.349   0.350
  0.354   0.358   0.361   0.366   0.367   0.371   0.374   0.374
  0.379   0.381   0.384   0.390   0.399   0.400   0.404   0.410
  0.413   0.416   0.421   0.423   0.428   0.431   0.435   0.437
  0.439   0.447   0.451   0.454   0.458   0.463   0.466   0.470
  0.475   0.477   0.480   0.481   0.484   0.493   0.497   0.497
  0.499   0.500   0.502   0.503   0.505   0.508   0.510   0.512
  0.514   0.519   0.520   0.522   0.526   0.528   0.533   0.534
  0.536   0.538   0.540   0.545   0.549   0.553   0.554   0.555
  0.557   0.559   0.561   0.564   0.565   0.565   0.568   0.572
  0.572   0.576   0.579   0.579   0.581   0.582   0.583   0.585
  0.588   0.589   0.592   0.594   0.598   0.604   0.605   0.608
  0.609   0.613   0.616   0.616   0.620   0.620   0.622   0.625
  0.628   0.632   0.633   0.635   0.637   0.639   0.641   0.645
  0.646   0.649   0.651   0.651   0.653   0.657   0.659   0.662
  0.665   0.668   0.670   0.674   0.675   0.677   0.681   0.682
  0.683   0.687   0.690   0.691   0.692   0.699   0.701   0.703
  0.709   0.712   0.715   0.721   0.724   0.726   0.730   0.731
  0.735   0.738   0.740   0.742   0.744   0.746   0.750   0.753
  0.755   0.758   0.761   0.764   0.767   0.774   0.776   0.780
  0.782   0.787   0.789   0.790   0.793   0.793   0.793   0.799
  0.800   0.801   0.803   0.805   0.806   0.810   0.811   0.813
  0.816   0.818   0.819   0.821   0.822   0.823   0.825   0.829
  0.829   0.832   0.835   0.836   0.838   0.841   0.841   0.845
  0.846   0.849   0.850   0.851   0.852   0.853   0.856   0.857
  0.862   0.866   0.868   0.869   0.870   0.872   0.875   0.878
  0.881   0.882   0.883   0.886   0.888   0.889   0.890   0.897
  0.897   0.900   0.903   0.905   0.909   0.911   0.914   0.916
  0.916   0.918   0.920   0.923   0.927   0.928   0.929   0.933
  0.935   0.938   0.940   0.942   0.943   0.946   0.948   0.950
  0.953   0.954   0.956   0.956   0.961   0.963   0.965   0.970
  0.972   0.973   0.974   0.978   0.979   0.984   0.989   0.991
  0.991   0.997   0.997   0.999   1.003   1.006   1.009   1.011
  1.015   1.016   1.020   1.023   1.023   1.027   1.029   1.032
  1.037   1.044   1.045   1.052   1.053   1.056   1.060   1.062
  1.065   1.069   1.071   1.077   1.079   1.082   1.084   1.091
  1.094   1.098   1.107   1.110   1.117   1.118   1.119   1.129
  1.130   1.135   1.139   1.143   1.146   1.149   1.155   1.160
  1.164   1.172   1.176   1.181   1.187   1.192   1.195   1.203
  1.208   1.211   1.218   1.219   1.223   1.227   1.232   1.237
  1.240   1.241   1.250   1.256   1.259   1.264   1.266   1.271
  1.275   1.279   1.287   1.289   1.293   1.296   1.301   1.310
  1.314   1.315   1.318   1.327   1.328   1.330   1.335   1.337
  1.349   1.350   1.351   1.358   1.359   1.369   1.374   1.378
  1.380   1.383   1.391   1.394   1.397   1.403   1.409   1.411
  1.415   1.417   1.419   1.426   1.427   1.436   1.443   1.448
  1.451   1.460   1.463   1.468   1.472   1.474   1.478   1.480
  1.486   1.489   1.494   1.497   1.506   1.509   1.513   1.518
  1.523   1.528   1.531   1.535   1.537   1.556   1.560   1.567
  1.571   1.583   1.587   1.596   1.603   1.610   1.614   1.617
  1.622   1.631   1.636   1.644   1.647   1.655   1.659   1.664
  1.669   1.674   1.681   1.681   1.687   1.692   1.693   1.696
  1.699   1.702   1.706   1.708   1.709   1.712   1.714   1.719
  1.727   1.730   1.736   1.744   1.746   1.756   1.762   1.763
  1.766   1.769   1.773   1.775   1.787   1.790   1.791   1.794
  1.797   1.800   1.802   1.806   1.817   1.818   1.820   1.824
  1.827   1.832   1.836   1.840   1.841   1.844   1.847   1.854
  1.856   1.859   1.864   1.866   1.870   1.873   1.875   1.879
  1.883   1.887   1.889   1.892   1.893   1.895   1.899   1.902
  1.904   1.909   1.911   1.913   1.920   1.922   1.924   1.925
  1.928   1.934   1.940   1.941   1.945   1.949   1.954   1.959
  1.965   1.972   1.978   1.981   1.985   1.991   1.993   2.002
  2.007   2.011   2.013   2.026   2.030   2.034   2.039   2.043
  2.044   2.049   2.055   2.061   2.063   2.066   2.071   2.075
  2.082   2.086   2.092   2.097   2.100   2.101   2.103   2.103
  2.109   2.116   2.120   2.121   2.123   2.126   2.131   2.132
  2.139   2.143   2.146   2.153   2.157   2.159   2.163   2.167
  2.167   2.174   2.177   2.183   2.186   2.189   2.193   2.195
  2.201   2.205   2.207   2.211   2.218   2.226   2.227   2.231
  2.238   2.240   2.243   2.245   2.251   2.253   2.256   2.259
  2.261   2.267   2.272   2.275   2.280   2.282   2.286   2.287
  2.290   2.291   2.301   2.304   2.306   2.312   2.312   2.315
  2.320   2.324   2.328   2.332   2.336   2.336   2.339   2.348
  2.349   2.351   2.356   2.359   2.361   2.370   2.372   2.373
  2.374   2.377   2.379   2.380   2.385   2.387   2.393   2.397
  2.405   2.406   2.411   2.412   2.416   2.418   2.422   2.426
  2.431   2.432   2.441   2.443   2.446   2.448   2.451   2.452
  2.455   2.459   2.463   2.466   2.469   2.472   2.473   2.477
  2.479   2.482   2.490   2.495   2.501   2.504   2.506   2.511
  2.519   2.524   2.526   2.527   2.528   2.532   2.536   2.537
  2.539   2.543   2.547   2.550   2.552   2.556   2.558   2.565
  2.572   2.575   2.577   2.578   2.583   2.586   2.591   2.597
  2.604   2.606   2.609   2.611   2.619   2.621   2.636   2.638
  2.639   2.648   2.652   2.652   2.653   2.665   2.676   2.678
  2.681   2.684   2.687   2.688   2.693   2.705   2.707   2.713
  2.716   2.718   2.723   2.727   2.729   2.731   2.739   2.743
  2.753   2.765   2.768   2.771   2.775   2.780   2.785   2.789
  2.793   2.801   2.808   2.812   2.822   2.830   2.835   2.837
  2.841   2.843   2.851   2.858   2.862   2.864   2.875   2.876
  2.881   2.886   2.891   2.895   2.902   2.905   2.906   2.913
  2.925   2.927   2.934   2.936   2.939   2.944   2.952   2.955
  2.979   2.980   2.996   2.999   3.006   3.011   3.023   3.025
  3.031   3.057   3.065   3.072   3.104   3.108   3.111   3.133
  3.148   3.166   3.176   3.180   3.205   3.228   3.232   3.238
  3.239   3.240   3.249   3.256   3.273   3.282   3.283   3.285
  3.290   3.296   3.299   3.306   3.308   3.323   3.328   3.337
  3.342   3.360   3.363   3.375   3.399   3.404   3.422   3.433
  3.443   3.467   3.474   3.476   3.494   3.515   3.531   3.532
  3.553   3.570   3.579   3.580   3.584   3.585   3.591   3.602
  3.642   3.647   3.715   3.732   3.880   3.909   3.920   3.922
  3.935   3.947   3.961   3.962   3.969   3.991   3.992   4.017
  4.033   4.083   4.090   4.099   4.115   4.124   4.125   4.131
  4.145   4.151   4.157   4.163   4.181   4.193   4.199   4.212
  4.228   4.235   4.244   4.251   4.258   4.272   4.290   4.302
  4.307   4.325   4.337   4.368   4.392   4.398   4.402   4.420
  4.454   4.457   4.467   4.480   4.482   4.491   4.500   4.503
  4.526   4.528   4.550   4.572   4.611   4.616   4.666   4.669
  4.690   4.715   4.717   4.743   4.748   4.764   4.810   4.820
 --------------------------------------------------------------
 
          Ground-State Mulliken Net Atomic Charges

     Atom                 Charge (a.u.)
  ----------------------------------------
      1 C                     0.265889
      2 C                    -0.110359
      3 N                    -0.480438
      4 C                    -0.100481
      5 C                     0.060681
      6 C                     0.080183
      7 C                     0.081330
      8 C                     0.030139
      9 C                     0.176160
     10 N                    -0.511783
     11 N                    -0.547712
     12 C                     0.238595
     13 C                     0.313754
     14 S                     0.608086
     15 N                    -0.572858
     16 C                    -0.231118
     17 S                     0.345868
     18 C                    -0.108623
     19 C                    -0.234629
     20 S                     0.262782
     21 C                     0.177815
     22 C                     0.015414
     23 C                    -0.309390
     24 C                    -0.074155
     25 N                    -0.392622
     26 S                     0.266608
     27 C                     0.113603
     28 C                    -0.296960
     29 C                    -0.218893
     30 H                     0.087884
     31 H                     0.102417
     32 H                     0.138758
     33 H                     0.097815
     34 H                     0.134739
     35 H                     0.104827
     36 H                     0.116781
     37 H                     0.136007
     38 H                     0.112891
     39 C                    -0.175962
     40 H                     0.094331
     41 H                     0.093879
     42 H                     0.114281
     43 C                    -0.201589
     44 H                     0.076364
     45 C                    -0.178581
     46 H                     0.117452
     47 H                     0.090035
     48 H                     0.094577
     49 C                    -0.175817
     50 H                     0.100025
     51 C                    -0.335241
     52 H                     0.091818
     53 H                     0.095352
     54 H                     0.098196
     55 H                     0.111446
     56 C                     0.242641
     57 C                    -0.118810
     58 N                    -0.464172
     59 C                    -0.053140
     60 C                     0.097771
     61 C                     0.002279
     62 C                     0.025897
     63 C                     0.068019
     64 C                     0.215684
     65 N                    -0.534940
     66 N                    -0.550358
     67 C                     0.207132
     68 C                     0.318845
     69 S                     0.626004
     70 N                    -0.554871
     71 C                    -0.244582
     72 S                     0.323599
     73 C                    -0.104034
     74 C                    -0.217955
     75 S                     0.269985
     76 C                     0.128389
     77 C                     0.087938
     78 C                    -0.304578
     79 C                    -0.059006
     80 N                    -0.446735
     81 S                     0.293035
     82 C                     0.105176
     83 C                    -0.305514
     84 C                    -0.232090
     85 H                     0.092536
     86 H                     0.109754
     87 H                     0.100821
     88 H                     0.109527
     89 H                     0.132099
     90 H                     0.127265
     91 H                     0.117496
     92 H                     0.139425
     93 H                     0.099988
     94 C                    -0.178303
     95 H                     0.122140
     96 H                     0.108846
     97 H                     0.094102
     98 C                    -0.170755
     99 H                     0.098345
    100 C                    -0.187761
    101 H                     0.099145
    102 H                     0.091016
    103 H                     0.091709
    104 C                    -0.172476
    105 H                     0.093873
    106 C                    -0.319425
    107 H                     0.091840
    108 H                     0.104062
    109 H                     0.096037
    110 H                     0.097517
  ----------------------------------------
  Sum of atomic charges =     0.000000

 -----------------------------------------------------------------
                    Cartesian Multipole Moments
 -----------------------------------------------------------------
    Charge (ESU x 10^10)
                 0.0000
    Dipole Moment (Debye)
         X      -0.2651      Y       5.2286      Z      -1.4141
       Tot       5.4229
    Quadrupole Moments (Debye-Ang)
        XX    -399.2697     XY      -0.6476     YY    -431.6707
        XZ       8.4241     YZ       3.5090     ZZ    -447.0098
    Octopole Moments (Debye-Ang^2)
       XXX      -1.1959    XXY     214.1051    XYY     -17.5069
       YYY     201.1580    XXZ     -61.3691    XYZ     -77.7065
       YYZ     -25.4904    XZZ     -21.5399    YZZ      31.0093
       ZZZ      36.4024
    Hexadecapole Moments (Debye-Ang^3)
      XXXX  -77789.7922   XXXY    -399.9078   XXYY  -16571.7120
      XYYY    -408.4357   YYYY  -19581.5449   XXXZ     118.6011
      XXYZ     360.1005   XYYZ     206.7864   YYYZ     -91.5304
      XXZZ  -15155.8587   XYZZ      21.2861   YYZZ   -4886.4574
      XZZZ     -58.1214   YZZZ      92.7551   ZZZZ   -8442.8459
 -----------------------------------------------------------------
Archival summary:
1\1\mn426\SP\ProcedureUnspecified\6-31G**\8105042\afmv_a\SatOct603:01:332018SatOct603:01:332018\0\\#,ProcedureUnspecified,6-31G**,\\0,1\S\C,1,1.70684\C,2,1.39394,1,105.293\C,3,1.37606,2,118.956,1,3.66522,0\C,4,1.3976,3,114.297,2,-5.23773,0\C,2,1.43623,1,126.733,3,-172.557,0\N,6,1.30784,2,120.492,1,166.721,0\C,7,1.41498,6,108.193,2,-171.869,0\H,8,1.08263,7,118.967,6,174.598,0\C,8,1.38571,7,114.443,6,0.301805,0\H,10,1.08183,8,128.224,7,171.486,0\C,5,1.45102,4,130.175,3,-175.966,0\N,12,1.36026,5,119.072,4,20.0987,0\C,13,1.34592,12,121.808,5,174.34,0\H,14,1.08877,13,115.752,12,-175.393,0\C,14,1.35918,13,125.505,12,-5.66188,0\C,12,1.4078,5,123.288,4,-164.184,0\N,17,1.36025,12,127.965,5,4.47031,0\C,17,1.38189,12,118.781,5,-171.692,0\N,19,1.35778,17,115.51,12,-179.472,0\C,16,1.44379,14,115.902,13,-170.003,0\C,21,1.40069,16,122.221,14,85.1127,0\H,22,1.08623,21,123.321,16,-6.20317,0\C,22,1.4026,21,118.312,16,-178.752,0\H,24,1.08522,22,122.001,21,174.439,0\C,21,1.42688,16,120.511,14,-95.7851,0\H,26,1.08923,21,120.118,16,6.97354,0\N,26,1.33708,21,127.193,16,-177.79,0\C,28,1.39603,26,115.302,21,-0.194734,0\C,3,1.46605,2,133.859,1,170.507,0\H,30,1.08415,3,121.42,2,11.5316,0\C,30,1.3465,3,114.134,2,-169.925,0\H,32,1.0829,30,127.776,3,-170.379,0\C,29,1.52522,28,117.521,26,-177.965,0\H,34,1.09638,29,108.839,28,26.3712,0\H,34,1.0976,29,99.2853,28,140.414,0\C,34,1.52297,29,116.6,28,-99.0852,0\H,37,1.09651,34,114.353,29,137.09,0\H,37,1.09771,34,107.253,29,23.5612,0\C,37,1.50621,34,114.792,29,-100.45,0\H,40,1.09648,37,100.674,34,74.4043,0\H,40,1.09719,37,109.651,34,-47.7053,0\C,40,1.56966,37,110.652,34,-167.801,0\H,43,1.09684,40,115.211,37,-46.6293,0\H,43,1.09702,40,106.738,37,60.8135,0\C,43,1.55061,40,119.168,37,175.555,0\H,46,1.09661,43,115.05,40,68.7169,0\H,46,1.09751,43,109.375,40,-171.584,0\C,46,1.48466,43,113.549,40,-46.9941,0\H,49,1.09702,46,113.691,43,-80.7177,0\H,49,1.09708,46,111.948,43,161.655,0\H,49,1.09711,46,116.521,43,42.5096,0\S,18,1.60062,17,106.256,12,177.059,0\S,10,1.70398,8,111.497,7,-6.13086,0\S,4,1.70903,3,119.203,2,177.861,0\H,9,2.39791,8,137.732,7,101.677,0\C,56,1.09743,9,112.63,8,-59.1333,0\H,57,1.09654,56,105.175,9,117.777,0\H,57,1.09696,56,104.651,9,14.2175,0\C,57,1.51749,56,123.053,9,-114.501,0\H,60,1.09695,57,99.7774,56,-148.889,0\H,60,1.09765,57,111.167,56,-33.3533,0\C,60,1.53888,57,116.574,56,91.068,0\H,63,1.09656,60,103.88,57,179.562,0\H,63,1.09688,60,105.369,57,64.9245,0\C,63,1.59054,60,119.373,57,-53.9994,0\H,66,1.09675,63,113.81,60,68.8697,0\H,66,1.0973,63,102.774,60,-42.44,0\C,66,1.57316,63,111.868,60,-162.853,0\H,69,1.09655,66,104.613,63,35.1014,0\H,69,1.09756,66,102.399,63,-77.7416,0\C,69,1.56173,66,114.511,63,164.473,0\H,72,1.09668,69,111.191,66,-174.753,0\H,72,1.09746,69,99.7149,66,-52.9715,0\C,72,1.5473,69,111.621,66,65.7252,0\N,75,1.33611,72,117.008,69,71.6609,0\C,76,1.3657,75,116.25,72,-167.269,0\H,77,1.08923,76,113.627,75,175.374,0\C,77,1.38246,76,125.391,75,4.08128,0\C,75,1.38442,72,118.292,69,-95.1462,0\H,80,1.08658,75,120.367,72,-11.4044,0\C,79,1.41118,77,117.367,76,-11.8936,0\H,82,1.08582,79,126.036,77,-179.274,0\C,79,1.51587,77,123.083,76,179.76,0\C,84,1.3809,79,128.804,77,13.4362,0\N,85,1.35349,84,121.885,79,1.05034,0\C,84,1.39315,79,119.871,77,-153.964,0\H,87,1.089,84,114.997,79,-3.85346,0\N,87,1.32715,84,127.521,79,-174.813,0\C,89,1.28832,87,121.31,84,-13.2839,0\C,85,1.42331,84,123.015,79,179.539,0\N,91,1.32261,85,114.29,84,-174.296,0\C,90,1.49204,89,120.498,87,-178.965,0\C,93,1.38516,90,124.208,89,-26.7191,0\C,94,1.36864,93,114.588,90,-177.083,0\C,95,1.36517,94,114.284,93,-4.4585,0\C,95,1.42651,94,111.158,93,171.48,0\H,97,1.08368,95,121.996,94,-177.543,0\C,97,1.39588,95,111.92,94,2.86351,0\H,99,1.08199,97,134.879,95,171.706,0\C,96,1.44895,95,123.652,94,177.642,0\N,101,1.32175,96,115.459,95,136.807,0\C,102,1.37733,101,110.23,96,-173.079,0\H,103,1.08164,102,119.741,101,167.025,0\C,103,1.38313,102,113.665,101,-20.4273,0\H,105,1.08251,103,124.982,102,-169.861,0\S,86,1.62515,85,102.625,84,169.6,0\S,105,1.73041,103,111.749,102,20.7749,0\S,96,1.76635,95,110.947,94,5.3869,0\S,99,1.77098,97,115.154,95,-2.22391,0\\\@

 Total job time:  110.89s(wall), 1184.47s(cpu) 
 Sat Oct  6 03:01:33 2018

        *************************************************************
        *                                                           *
        *  Thank you very much for using Q-Chem.  Have a nice day.  *
        *                                                           *
        *************************************************************


