
Running Job 1 of 1 ./9/87.qcin
qchem ./9/87.qcin_29009.0 /tmpu/cab_g/afmv_a/scratch_qchem/qchem29009/ 1
/tmpu/appuserlic/qchem4.4/serial-multicore/exe/qcprog.exe_s ./9/87.qcin_29009.0 /tmpu/cab_g/afmv_a/scratch_qchem/qchem29009/
Check license passed

                  Welcome to Q-Chem
     A Quantum Leap Into The Future Of Chemistry


 Q-Chem 4.4, Q-Chem, Inc., Pleasanton, CA (2016)

 Y. Shao,  Z. Gan,  E. Epifanovsky,  A. T. B. Gilbert,  M. Wormit,  
 J. Kussmann,  A. W. Lange,  A. Behn,  J. Deng,  X. Feng,  D. Ghosh,  
 M. Goldey,  P. R. Horn,  L. D. Jacobson,  I. Kaliman,  F. Rob,  
 R. Z. Khaliullin,  T. Kus,  A. Landau,  J. Liu,  E. I. Proynov,  Y. M. Rhee,  
 R. M. Richard,  M. A. Rohrdanz,  R. P. Steele,  E. J. Sundstrom,  
 H. L. Woodcock III,  P. M. Zimmerman,  D. Zuev,  B. Albrecht,  E. Alguire,  
 B. Austin,  S. A. Baeppler,  G. J. O. Beran,  Y. A. Bernard,  E. Berquist,  
 K. Brandhorst,  K. B. Bravaya,  S. T. Brown,  D. Casanova,  C.-M. Chang,  
 Y. Chen,  S. H. Chien,  K. D. Closser,  M. P. Coons,  D. L. Crittenden,  
 S. Dasgupta,  M. Diedenhofen,  R. A. DiStasio Jr.,  H. Do,  A. D. Dutoi,  
 R. G. Edgar,  P.-T. Fang,  S. Fatehi,  Q. Feng,  L. Fusti-Molnar,  
 A. Ghysels,  A. Golubeva-Zadorozhnaya,  J. Gomes,  A. Gunina,  
 M. W. D. Hanson-Heine,  P. H. P. Harbach,  A. W. Hauser,  J. E. Herr,  
 E. G. Hohenstein,  Z. C. Holden,  K. Hui,  T.-C. Jagau,  H. Ji,  B. Kaduk,  
 K. Khistyaev,  Jaehoon Kim,  Jihan Kim,  R. A. King,  P. Klunzinger,  
 K. Koh,  D. Kosenkov,  T. Kowalczyk,  C. M. Krauter,  A. Kunitsa,  
 K. U. Lao,  A. Laurent,  K. V. Lawler,  J. Lee,  D. Lefrancois,  S. Lehtola,  
 S. V. Levchenko,  C. Y. Lin,  Y.-S. Lin,  F. Liu,  E. Livshits,  
 R. C. Lochan,  A. Luenser,  P. Manohar,  S. F. Manzer,  S.-P. Mao,  Y. Mao,  
 N. Mardirossian,  A. V. Marenich,  L. A. Martinez-Martinez,  S. A. Maurer,  
 N. J. Mayhall,  J.-M. Mewes,  A. F. Morrison,  K. Nanda,  T. S. Nguyen-Beck,  
 C. M. Oana,  R. Olivares-Amaya,  D. P. O'Neill,  J. A. Parkhill,  
 T. M. Perrine,  R. Peverati,  P. A. Pieniazek,  F. Plasser,  A. Prociuk,  
 D. R. Rehn,  E. Rosta,  N. J. Russ,  N. Sergueev,  S. M. Sharada,  
 S. Sharma,  D. W. Small,  A. Sodt,  T. Stauch,  T. Stein,  D. Stuck,  
 Y.-C. Su,  A. J. W. Thom,  T. Tsuchimochi,  L. Vogt,  O. Vydrov,  T. Wang,  
 M. A. Watson,  J. Wenzel,  A. White,  C. F. Williams,  V. Vanovschi,  
 K. Yao,  S. Yeganeh,  S. R. Yost,  Z.-Q. You,  I. Y. Zhang,  X. Zhang,  
 Y. Zhao,  B. R. Brooks,  G. K. L. Chan,  D. M. Chipman,  C. J. Cramer,  
 W. A. Goddard III,  M. S. Gordon,  W. J. Hehre,  A. Klamt,  
 H. F. Schaefer III,  M. W. Schmidt,  C. D. Sherrill,  D. G. Truhlar,  
 A. Warshel,  X. Xu,  A. Aspuru-Guzik,  R. Baer,  A. T. Bell,  N. A. Besley,  
 J.-D. Chai,  A. Dreuw,  B. D. Dunietz,  T. R. Furlani,  S. R. Gwaltney,  
 C.-P. Hsu,  Y. Jung,  J. Kong,  D. S. Lambrecht,  W. Liang,  C. Ochsenfeld,  
 V. A. Rassolov,  L. V. Slipchenko,  J. E. Subotnik,  T. Van Voorhis,  
 J. M. Herbert,  A. I. Krylov,  P. M. W. Gill,  M. Head-Gordon

 Contributors to earlier versions of Q-Chem not listed above: 
 R. D. Adamson,  J. Baker,  E. F. C. Byrd,  A. K. Chakraborty,  C.-L. Cheng,  
 H. Dachsel,  R. J. Doerksen,  G. Hawkins,  A. Heyden,  S. Hirata,  
 G. Kedziora,  F. J. Keil,  C. Kelley,  P. P. Korambath,  W. Kurlancheek,  
 A. M. Lee,  M. S. Lee,  D. Liotard,  I. Lotan,  P. E. Maslen,  N. Nair,  
 D. Neuhauser,  R. Olson,  B. Peters,  J. Ritchie,  N. E. Schultz,  
 N. Shenvi,  A. C. Simmonett,  K. S. Thanthiriwatte,  Q. Wu,  W. Zhang

 Please cite Q-Chem as follows:
 Y. Shao et al., Mol. Phys. 113, 184-215 (2015)
 DOI: 10.1080/00268976.2014.952696

 Q-Chem 4.4.2 for Intel X86 Linux

 Parts of Q-Chem use Armadillo 5.200.1 (Boston Tea Smuggler).
 http://arma.sourceforge.net/

 Q-Chem begins on Sat Oct  6 03:13:15 2018  

Host: 
0

     Scratch files written to /tmpu/cab_g/afmv_a/scratch_qchem/qchem29009//
 Dec716 11556_ 22328  22283 4050   
Processing $rem in /tmpu/appuserlic/qchem4.4/serial-multicore/config/preferences.
 MEM_TOTAL  2000 
FILE_GEOM_ORG=        593

Checking the input file for inconsistencies... 	...done.

--------------------------------------------------------------
User input:
--------------------------------------------------------------
$comment
SP
$end

$rem
MEM_STATIC 5000
MEM_TOTAL 20000
JOBTYPE SP
EXCHANGE B3LYP
BASIS 6-31g(d,p)
$end

$molecule
0 1
C          11.328000     11.840000      1.095000
C          10.312000     11.926000      0.187000
N          11.141000     12.005000      2.438000
C           9.016000     12.333000      0.537000
C           9.938000     12.457000      2.786000
C           8.830000     12.589000      1.905000
C           7.421000     12.860000      2.384000
C           6.559000     13.745000      1.718000
C           6.961000     12.158000      3.493000
N           5.321000     14.039000      2.204000
N           7.626000     11.126000      4.131000
C           5.775000     12.457000      4.058000
C           4.976000     13.496000      3.428000
S           6.606000     10.576000      5.303000
N           5.439000     11.655000      5.083000
C           3.683000     13.955000      3.967000
S           2.165000     14.399000      3.044000
C           3.533000     14.158000      5.313000
C           1.413000     14.827000      4.561000
S           4.670000     14.044000      6.619000
C           2.362000     14.832000      5.582000
C           0.025000     15.255000      4.656000
C           3.463000     14.908000      7.697000
C           2.265000     15.130000      7.013000
N          -0.770000     14.951000      3.645000
S          -0.431000     16.602000      5.639000
C          -1.911000     15.722000      3.661000
C          -1.971000     16.612000      4.694000
C          12.628000     11.248000      0.740000
H          10.419000     11.521000     -0.816000
H           8.193000     12.298000     -0.171000
H           9.868000     12.548000      3.869000
H           6.918000     14.228000      0.810000
H           3.710000     14.854000      8.749000
H           1.330000     15.371000      7.506000
H          -2.746000     15.524000      3.001000
H          -2.675000     17.370000      5.014000
H          12.766000     11.483000     -0.323000
C          12.493000      9.684000      0.920000
H          13.425000     11.743000      1.310000
H          11.653000      9.319000      0.318000
H          12.290000      9.493000      1.981000
C          13.868000      8.960000      0.683000
H          14.326000      9.353000     -0.233000
C          13.629000      7.454000      0.608000
H          14.487000      9.197000      1.557000
H          12.904000      7.246000     -0.189000
H          13.278000      6.954000      1.519000
C          15.043000      6.823000      0.174000
H          15.420000      7.360000     -0.706000
C          15.018000      5.354000     -0.330000
H          15.768000      6.942000      0.989000
H          14.483000      5.182000     -1.272000
H          14.547000      4.676000      0.392000
H          16.041000      4.976000     -0.453000
C          14.244000      8.666000     -3.351000
C          13.125000      9.350000     -2.900000
N          15.354000      9.330000     -3.589000
C          13.158000     10.742000     -2.878000
C          15.401000     10.648000     -3.613000
C          14.311000     11.473000     -3.277000
C          14.305000     12.906000     -3.413000
C          15.197000     13.501000     -4.344000
C          13.453000     13.841000     -2.862000
N          15.371000     14.809000     -4.670000
N          12.469000     13.510000     -1.948000
C          13.456000     15.161000     -3.248000
C          14.472000     15.618000     -4.205000
S          11.622000     14.859000     -1.715000
N          12.498000     15.884000     -2.676000
C          14.674000     17.021000     -4.582000
S          13.406000     18.179000     -4.454000
C          15.824000     17.643000     -5.099000
C          14.430000     19.383000     -5.329000
S          17.346000     16.951000     -5.459000
C          15.615000     18.883000     -5.625000
C          14.011000     20.748000     -5.610000
C          17.808000     18.488000     -6.207000
C          16.787000     19.425000     -6.210000
N          14.862000     21.682000     -6.004000
S          12.444000     21.345000     -5.261000
C          14.345000     22.911000     -5.877000
C          12.981000     22.948000     -5.540000
C          14.193000      7.171000     -3.421000
H          12.185000      8.850000     -2.688000
H          12.223000     11.180000     -2.544000
H          16.329000     11.179000     -3.820000
H          15.855000     12.853000     -4.921000
H          18.840000     18.622000     -6.502000
H          17.005000     20.453000     -6.476000
H          14.939000     23.797000     -6.057000
H          12.338000     23.795000     -5.336000
H          15.060000      6.766000     -2.885000
C          14.394000      6.721000     -4.861000
H          13.303000      6.775000     -2.918000
H          15.466000      6.755000     -5.092000
H          13.743000      7.213000     -5.593000
C          14.089000      5.223000     -4.952000
H          14.706000      4.730000     -4.190000
C          14.400000      4.501000     -6.302000
H          13.004000      5.182000     -4.799000
H          14.032000      3.484000     -6.123000
H          15.469000      4.466000     -6.544000
C          13.563000      5.113000     -7.490000
H          12.524000      4.801000     -7.330000
C          14.035000      4.542000     -8.786000
H          13.523000      6.207000     -7.564000
H          13.242000      4.597000     -9.542000
H          14.450000      3.529000     -8.728000
H          14.769000      5.253000     -9.185000
$end

--------------------------------------------------------------
 ----------------------------------------------------------------
             Standard Nuclear Orientation (Angstroms)
    I     Atom           X                Y                Z
 ----------------------------------------------------------------
    1      C      -0.1241071278     1.9502454579    -1.7183313134
    2      C      -0.3655022018     1.6643453006    -0.4052793272
    3      N      -1.1076949193     1.9809853978    -2.6656713328
    4      C      -1.6183145102     1.2366186636     0.0586993832
    5      C      -2.2883312009     1.5142860060    -2.2645396233
    6      C      -2.6207869756     1.1814765676    -0.9229137307
    7      C      -4.0356430868     0.9006369856    -0.4674202469
    8      C      -4.3426886651    -0.1269625383     0.4378903250
    9      C      -5.0488081734     1.7340524385    -0.9291563079
   10      N      -5.6286434810    -0.4189044470     0.7790151313
   11      N      -4.8723453931     2.8902596135    -1.6683036921
   12      C      -6.3429254478     1.4524346848    -0.6818226850
   13      C      -6.6298884260     0.2823036759     0.1325897849
   14      S      -6.3712699402     3.5489260088    -1.8576916055
   15      N      -7.2021978546     2.3792908498    -1.1393306963
   16      C      -7.9994374082    -0.1676813749     0.4406482849
   17      S      -8.6424841417    -0.8398611582     2.0180050097
   18      C      -8.9575889042    -0.1716901666    -0.5377967264
   19      C     -10.1894479589    -1.0767219341     1.2429070022
   20      S      -8.8655526653     0.2100183191    -2.2281307061
   21      C     -10.0746639771    -0.8674535148    -0.1304459627
   22      C     -11.3580757568    -1.5697420202     1.9570451292
   23      C     -10.5191500602    -0.5518861305    -2.4529556716
   24      C     -11.0480871721    -0.9489339040    -1.2221337522
   25      N     -11.3441676831    -1.4730899812     3.2750083111
   26      S     -12.3857274678    -2.7763794732     1.2666886864
   27      C     -12.2860200197    -2.3013030186     3.8438275626
   28      C     -13.0122622973    -3.0251867014     2.9430758942
   29      C       1.1435473670     2.5599328598    -2.1517160775
   30      H       0.3565484954     1.9173101590     0.3668181868
   31      H      -1.8259662319     1.1124647231     1.1176066320
   32      H      -3.0160879862     1.5855267039    -3.0716113824
   33      H      -3.5227247419    -0.7198947102     0.8412817034
   34      H     -10.9720652370    -0.3228599164    -3.4084889446
   35      H     -12.0979367578    -1.1688968590    -1.0646944122
   36      H     -12.5251367953    -2.2580904908     4.8988085316
   37      H     -13.7979769229    -3.7673022373     3.0101360048
   38      H       1.8971814561     2.1743707881    -1.4534213341
   39      C       0.9992361831     4.1217840683    -1.9606242549
   40      H       1.3945495605     2.2076951659    -3.1607059218
   41      H       0.7281649103     4.3382653600    -0.9209679581
   42      H       0.1937407042     4.4596435187    -2.6242800582
   43      C       2.2590952486     4.8842951482    -2.5104442145
   44      H       3.1659371949     4.3850029720    -2.1476577658
   45      C       2.1878216204     6.3436193728    -2.0676407849
   46      H       2.1946581336     4.8219954444    -3.6036837148
   47      H       2.1201293868     6.3825489088    -0.9731088061
   48      H       1.3730800856     6.9542696593    -2.4755923251
   49      C       3.5955884513     6.9867273055    -2.5041241600
   50      H       4.4098894369     6.3459120161    -2.1419533856
   51      C       3.9554806143     8.3572350550    -1.8678945321
   52      H       3.6563132888     7.0383319138    -3.5985009043
   53      H       4.1248367982     8.3502072241    -0.7841777368
   54      H       3.1714578003     9.1072311117    -2.0279668346
   55      H       4.8524151786     8.7742172342    -2.3434744410
   56      C       5.0582976696     4.5816757032     0.4176704141
   57      C       3.8692444995     3.9070261814     0.6509483199
   58      N       6.0460281627     3.9586600162    -0.1872096789
   59      C       3.8167633779     2.5393901282     0.3939378965
   60      C       6.0363837452     2.6578548247    -0.4056629669
   61      C       4.9345305360     1.8283577223    -0.1237497488
   62      C       4.9470467925     0.3937658076    -0.2412673285
   63      C       6.1945807908    -0.2803732226    -0.1661308464
   64      C       3.8942614728    -0.4967791196    -0.2892548611
   65      N       6.4715676979    -1.6096009285    -0.2281627660
   66      N       2.5726774914    -0.0912934423    -0.3362670469
   67      C       4.0734347305    -1.8575170651    -0.2015383423
   68      C       5.4408269090    -2.3918805348    -0.1609389322
   69      S       1.7008457711    -1.4384252353    -0.2072539328
   70      N       2.9343112021    -2.5422652389    -0.1669764351
   71      C       5.7668625913    -3.8208757132    -0.2158526290
   72      S       4.6381131324    -5.0215275765     0.2836789137
   73      C       6.9601916167    -4.4425896088    -0.6234193955
   74      C       5.9263856656    -6.2796993617     0.1381638314
   75      S       8.4099348669    -3.7213767259    -1.1739141602
   76      C       7.0630207880    -5.7588241766    -0.2844360268
   77      C       5.7072319454    -7.6947480127     0.3976941037
   78      C       9.1629414640    -5.3231843496    -1.1238102554
   79      C       8.3193294292    -6.3106550370    -0.6404476831
   80      N       6.5752869604    -8.6238213512     0.0301397234
   81      S       4.2333622660    -8.3267022729     0.9993925175
   82      C       6.0336403690    -9.8484750755     0.0566203875
   83      C       4.7526783947    -9.9174117223     0.6309183584
   84      C       5.1310695264     6.0424741552     0.7390706933
   85      H       3.0234356805     4.3747632587     1.1452897690
   86      H       2.8558928742     2.1008436761     0.6429958907
   87      H       6.8682384466     2.1595655970    -0.9013640879
   88      H       7.0976960958     0.3111856728    -0.0238711574
   89      H      10.1492806518    -5.4369222021    -1.5529998493
   90      H       8.6068706543    -7.3518359314    -0.7316967330
   91      H       6.5699935233   -10.7133429297    -0.3102050324
   92      H       4.0823332815   -10.7612685265     0.7358808429
   93      H       5.4999414231     6.5770821349    -0.1447493290
   94      C       6.1988017078     6.2789041570     1.7976309623
   95      H       4.1400482699     6.4551208596     0.9616118502
   96      H       7.1817031545     6.2760315522     1.3101912284
   97      H       6.1165051210     5.6418485122     2.6859306736
   98      C       6.0851999645     7.7238365867     2.2921761247
   99      H       6.1223222309     8.3643668438     1.4018251113
  100      C       7.1964272355     8.2490602211     3.2564473968
  101      H       5.1405651190     7.7209087181     2.8489269092
  102      H       6.8442784405     9.2568874695     3.5055045460
  103      H       8.1869759473     8.3123834837     2.7902356274
  104      C       7.2439623392     7.4126003765     4.5923112904
  105      H       6.3437507957     7.6808752954     5.1580963600
  106      C       8.4412638219     7.8070256009     5.3918979974
  107      H       7.2072889026     6.3197595987     4.5013932319
  108      H       8.2826124502     7.5886169232     6.4551653164
  109      H       8.7785456639     8.8405891271     5.2513796843
  110      H       9.2309041025     7.0899540741     5.1354712969
 ----------------------------------------------------------------
 Molecular Point Group                 C1    NOp =  1
 Largest Abelian Subgroup              C1    NOp =  1
 Nuclear Repulsion Energy = 10919.7610264752 hartrees
 There are      270 alpha and      270 beta electrons
 Requested basis set is 6-31G(d,p)
 There are 406 shells and 1262 basis functions

 Total QAlloc Memory Limit  20000 MB
 Mega-Array Size      4888 MB
 MEM_STATIC part      5000 MB
 A cutoff of  1.0D-08 yielded  14304 shell pairs
 There are    143998 function pairs
 
 -------------------------------------------------------
 OpenMP Integral Computing Module                       
 Release: version 1.0, May 2013, Q-Chem Inc. Pittsburgh 
 -------------------------------------------------------
 Integral Job Info:
 Integral job number is                      11
 Integral operator is                         1
 short-range coefficients                     0
 long-range coefficients              100000000
 Omega coefficients                           0
 if combine SR and LR in K                    0
 Integral screening is                        0
 Integral computing path is                   2
 max size of driver memory is            800000
 size of driver memory is                593474
 size of scratch memory is             15166112
 max col of scratch BK array               1296
 max len of scratch array in speh3          155
 max len of scratch index in speh4           18
 max int batch size is                      520
 min int batch size is                       52
 fixed nKL is                                52
 max L of basis functions is                  2
 order of int derivative is                   0
 number of shells is                        406
 number of basis is                        1262
 number of cartesian basis is              1262
 number of contracted shell pairs         14304
 number of primitive shell pairs          44978
 maxK2 (contraction) of shell pair           36
 max number of K2 of shell pair               1
 max number of CS2 of shell pair           1389
 max number of PS2 of shell pair           8094
 mem total for path MDJ                  295144
 -------------------------------------------------------
 Smallest overlap matrix eigenvalue = 3.58E-04

 Scale SEOQF with 1.000000e-02/1.000000e-02/1.000000e-02

 Standard Electronic Orientation quadrupole field applied
 Nucleus-field energy     =     0.0000001482 hartrees
 Guess from superposition of atomic densities
 Warning:  Energy on first SCF cycle will be non-variational
 A restricted hybrid HF-DFT SCF calculation will be
 performed using Pulay DIIS extrapolation
 Exchange:     0.2000 Hartree-Fock + 0.0800 Slater + 0.7200 B88
 Correlation:  0.1900 VWN1RPA + 0.8100 LYP
 Using SG-1 standard quadrature grid
 SCF converges when DIIS error is below 1.0E-05
 using 16 threads for integral computing 
 -------------------------------------------------------
 OpenMP BLAS3 based DFT computing Module                
 Release: version 1.0, May 2013, Q-Chem Inc. Pittsburgh 
 -------------------------------------------------------
 ---------------------------------------
  Cycle       Energy         DIIS Error
 ---------------------------------------
    1   -5680.6574307161      2.17E-02
    2   -5662.4546808933      2.18E-03
    3   -5660.8195994492      3.46E-03
    4   -5663.2642339827      1.01E-03
    5   -5663.4547870960      4.19E-04
    6   -5663.4762164327      2.65E-04
    7   -5663.4889849724      8.77E-05
    8   -5663.4903068989      3.42E-05
    9   -5663.4905315462      1.30E-05
   10   -5663.4905668206      3.66E-06 Convergence criterion met
 ---------------------------------------
 SCF time:  CPU 1092.07 s  wall 96.80 s
 SCF   energy in the final basis set = -5663.4905668206
 Total energy in the final basis set = -5663.4905668206
 
 --------------------------------------------------------------
 
                    Orbital Energies (a.u.)
 --------------------------------------------------------------
 
 Alpha MOs
 -- Occupied --
-88.993 -88.990 -88.927 -88.926 -88.924 -88.923 -88.909 -88.906
-14.386 -14.382 -14.380 -14.377 -14.352 -14.351 -14.343 -14.339
-14.326 -14.325 -10.269 -10.265 -10.265 -10.265 -10.258 -10.254
-10.252 -10.246 -10.240 -10.239 -10.238 -10.237 -10.237 -10.237
-10.237 -10.235 -10.234 -10.231 -10.228 -10.228 -10.226 -10.226
-10.225 -10.223 -10.222 -10.221 -10.219 -10.216 -10.215 -10.214
-10.212 -10.212 -10.211 -10.206 -10.199 -10.195 -10.193 -10.192
-10.184 -10.180 -10.178 -10.177 -10.177 -10.176 -10.176 -10.175
-10.173 -10.171 -10.168 -10.167  -8.049  -8.045  -7.988  -7.987
 -7.984  -7.982  -7.969  -7.967  -6.014  -6.010  -6.008  -6.007
 -6.004  -6.003  -5.951  -5.950  -5.949  -5.948  -5.947  -5.947
 -5.945  -5.944  -5.944  -5.943  -5.941  -5.939  -5.934  -5.931
 -5.930  -5.928  -5.925  -5.923  -1.040  -1.038  -0.977  -0.973
 -0.970  -0.952  -0.946  -0.938  -0.923  -0.912  -0.903  -0.892
 -0.849  -0.847  -0.838  -0.831  -0.813  -0.812  -0.811  -0.805
 -0.802  -0.801  -0.799  -0.794  -0.789  -0.780  -0.771  -0.763
 -0.753  -0.747  -0.744  -0.734  -0.728  -0.727  -0.714  -0.708
 -0.696  -0.689  -0.674  -0.672  -0.657  -0.653  -0.649  -0.646
 -0.633  -0.628  -0.627  -0.624  -0.608  -0.605  -0.600  -0.598
 -0.595  -0.593  -0.589  -0.586  -0.578  -0.574  -0.571  -0.557
 -0.555  -0.544  -0.542  -0.540  -0.531  -0.520  -0.518  -0.513
 -0.509  -0.502  -0.502  -0.500  -0.494  -0.487  -0.481  -0.476
 -0.476  -0.475  -0.471  -0.467  -0.463  -0.461  -0.453  -0.450
 -0.447  -0.444  -0.441  -0.439  -0.437  -0.434  -0.433  -0.431
 -0.431  -0.424  -0.422  -0.420  -0.419  -0.417  -0.417  -0.415
 -0.413  -0.410  -0.406  -0.404  -0.403  -0.399  -0.397  -0.395
 -0.395  -0.393  -0.391  -0.389  -0.387  -0.386  -0.384  -0.381
 -0.377  -0.375  -0.372  -0.367  -0.367  -0.362  -0.360  -0.356
 -0.355  -0.354  -0.352  -0.351  -0.348  -0.346  -0.342  -0.340
 -0.337  -0.335  -0.334  -0.326  -0.324  -0.324  -0.322  -0.321
 -0.317  -0.312  -0.307  -0.305  -0.303  -0.302  -0.302  -0.298
 -0.293  -0.292  -0.290  -0.290  -0.286  -0.284  -0.283  -0.281
 -0.277  -0.277  -0.272  -0.262  -0.256  -0.252  -0.251  -0.248
 -0.246  -0.245  -0.234  -0.229  -0.195  -0.191
 -- Virtual --
 -0.111  -0.110  -0.076  -0.071  -0.041  -0.034  -0.026  -0.025
 -0.023  -0.017  -0.016  -0.011  -0.008  -0.003  -0.001   0.001
  0.003   0.005   0.006   0.017   0.032   0.032   0.039   0.045
  0.048   0.052   0.065   0.066   0.070   0.071   0.081   0.082
  0.089   0.098   0.101   0.104   0.107   0.111   0.111   0.113
  0.115   0.118   0.119   0.119   0.120   0.122   0.124   0.126
  0.127   0.128   0.130   0.135   0.136   0.138   0.140   0.148
  0.151   0.152   0.156   0.157   0.159   0.160   0.161   0.164
  0.167   0.170   0.173   0.176   0.178   0.181   0.184   0.184
  0.188   0.188   0.192   0.194   0.195   0.198   0.201   0.205
  0.207   0.208   0.213   0.215   0.218   0.222   0.223   0.224
  0.228   0.229   0.233   0.234   0.238   0.241   0.242   0.244
  0.246   0.247   0.249   0.251   0.255   0.261   0.261   0.262
  0.267   0.269   0.271   0.274   0.277   0.280   0.284   0.285
  0.287   0.289   0.291   0.294   0.298   0.298   0.299   0.306
  0.312   0.314   0.318   0.319   0.321   0.323   0.325   0.329
  0.332   0.335   0.338   0.339   0.341   0.344   0.348   0.349
  0.351   0.361   0.361   0.363   0.364   0.366   0.370   0.374
  0.375   0.380   0.383   0.386   0.388   0.393   0.394   0.399
  0.400   0.407   0.417   0.418   0.422   0.425   0.435   0.437
  0.439   0.444   0.445   0.450   0.457   0.461   0.463   0.469
  0.470   0.473   0.475   0.481   0.489   0.491   0.494   0.497
  0.498   0.503   0.505   0.507   0.510   0.516   0.519   0.521
  0.522   0.524   0.527   0.529   0.530   0.533   0.535   0.536
  0.540   0.541   0.543   0.545   0.546   0.547   0.547   0.551
  0.553   0.553   0.554   0.555   0.559   0.563   0.563   0.565
  0.566   0.569   0.573   0.575   0.577   0.582   0.584   0.588
  0.590   0.592   0.593   0.594   0.595   0.599   0.600   0.604
  0.606   0.608   0.611   0.613   0.615   0.618   0.619   0.620
  0.622   0.625   0.626   0.627   0.629   0.630   0.633   0.634
  0.634   0.639   0.640   0.643   0.644   0.647   0.651   0.651
  0.657   0.660   0.664   0.666   0.671   0.672   0.674   0.677
  0.680   0.681   0.685   0.687   0.689   0.691   0.692   0.696
  0.701   0.702   0.705   0.708   0.710   0.714   0.717   0.728
  0.730   0.731   0.737   0.739   0.742   0.744   0.747   0.751
  0.753   0.755   0.760   0.761   0.765   0.767   0.768   0.771
  0.774   0.779   0.783   0.786   0.788   0.790   0.791   0.795
  0.798   0.799   0.802   0.805   0.807   0.809   0.812   0.813
  0.816   0.818   0.818   0.821   0.822   0.823   0.826   0.827
  0.829   0.830   0.833   0.835   0.837   0.838   0.839   0.841
  0.843   0.843   0.846   0.846   0.849   0.852   0.854   0.856
  0.857   0.860   0.862   0.864   0.865   0.867   0.868   0.872
  0.877   0.877   0.879   0.881   0.883   0.889   0.892   0.894
  0.895   0.898   0.900   0.903   0.903   0.907   0.911   0.913
  0.918   0.921   0.924   0.924   0.926   0.928   0.932   0.934
  0.937   0.938   0.941   0.943   0.944   0.947   0.949   0.953
  0.955   0.956   0.959   0.963   0.964   0.966   0.967   0.971
  0.972   0.976   0.979   0.981   0.984   0.986   0.989   0.992
  0.992   0.996   0.998   1.002   1.004   1.006   1.007   1.008
  1.016   1.020   1.021   1.023   1.026   1.028   1.031   1.033
  1.035   1.039   1.040   1.045   1.046   1.051   1.053   1.055
  1.059   1.061   1.066   1.072   1.074   1.077   1.080   1.084
  1.088   1.090   1.092   1.097   1.105   1.110   1.111   1.116
  1.119   1.120   1.124   1.132   1.136   1.142   1.150   1.151
  1.158   1.160   1.166   1.170   1.171   1.182   1.185   1.187
  1.189   1.192   1.201   1.209   1.213   1.222   1.226   1.227
  1.229   1.232   1.237   1.254   1.259   1.266   1.269   1.275
  1.279   1.286   1.288   1.290   1.293   1.299   1.302   1.306
  1.308   1.310   1.317   1.321   1.328   1.329   1.337   1.341
  1.344   1.345   1.347   1.353   1.360   1.364   1.368   1.372
  1.376   1.379   1.385   1.387   1.390   1.393   1.399   1.402
  1.405   1.410   1.415   1.418   1.422   1.426   1.428   1.430
  1.437   1.438   1.442   1.445   1.450   1.453   1.461   1.479
  1.483   1.487   1.488   1.496   1.501   1.511   1.516   1.517
  1.524   1.528   1.538   1.542   1.546   1.548   1.551   1.560
  1.567   1.581   1.584   1.592   1.597   1.603   1.612   1.613
  1.624   1.625   1.629   1.633   1.638   1.647   1.653   1.658
  1.663   1.666   1.672   1.674   1.675   1.679   1.687   1.689
  1.689   1.700   1.701   1.704   1.707   1.712   1.718   1.721
  1.721   1.724   1.731   1.734   1.735   1.744   1.745   1.754
  1.757   1.765   1.769   1.772   1.781   1.782   1.784   1.788
  1.790   1.794   1.797   1.804   1.808   1.815   1.823   1.825
  1.825   1.830   1.833   1.838   1.844   1.844   1.851   1.861
  1.861   1.864   1.866   1.869   1.870   1.872   1.873   1.879
  1.884   1.885   1.890   1.896   1.899   1.901   1.905   1.910
  1.911   1.915   1.918   1.920   1.922   1.925   1.925   1.931
  1.934   1.937   1.942   1.944   1.946   1.949   1.954   1.958
  1.968   1.971   1.973   1.978   1.981   1.988   1.989   1.990
  1.997   2.003   2.007   2.017   2.021   2.023   2.026   2.038
  2.042   2.045   2.046   2.057   2.063   2.069   2.070   2.074
  2.077   2.084   2.087   2.091   2.091   2.096   2.099   2.104
  2.107   2.110   2.111   2.116   2.119   2.123   2.128   2.133
  2.139   2.142   2.142   2.143   2.146   2.149   2.158   2.159
  2.164   2.166   2.172   2.175   2.177   2.183   2.184   2.189
  2.192   2.199   2.210   2.217   2.222   2.224   2.225   2.228
  2.233   2.234   2.237   2.246   2.250   2.253   2.257   2.259
  2.261   2.263   2.272   2.273   2.275   2.280   2.282   2.285
  2.291   2.292   2.296   2.302   2.305   2.308   2.310   2.314
  2.317   2.322   2.323   2.326   2.330   2.332   2.333   2.336
  2.340   2.347   2.350   2.354   2.358   2.360   2.364   2.370
  2.371   2.373   2.378   2.381   2.384   2.390   2.391   2.394
  2.394   2.399   2.406   2.408   2.417   2.420   2.425   2.428
  2.432   2.436   2.439   2.441   2.450   2.450   2.456   2.457
  2.460   2.461   2.464   2.468   2.471   2.473   2.475   2.479
  2.482   2.486   2.491   2.496   2.500   2.503   2.507   2.510
  2.513   2.517   2.523   2.525   2.535   2.537   2.545   2.547
  2.549   2.551   2.553   2.556   2.560   2.565   2.567   2.569
  2.574   2.575   2.588   2.593   2.597   2.598   2.602   2.609
  2.611   2.613   2.623   2.625   2.631   2.635   2.642   2.647
  2.654   2.655   2.659   2.665   2.668   2.673   2.677   2.680
  2.684   2.688   2.690   2.692   2.698   2.700   2.703   2.706
  2.711   2.723   2.726   2.730   2.735   2.739   2.742   2.744
  2.752   2.759   2.767   2.768   2.775   2.780   2.790   2.794
  2.806   2.807   2.812   2.819   2.820   2.824   2.831   2.832
  2.839   2.848   2.850   2.852   2.864   2.870   2.873   2.876
  2.886   2.891   2.896   2.901   2.905   2.908   2.910   2.919
  2.921   2.922   2.928   2.933   2.937   2.940   2.944   2.950
  2.958   2.963   2.973   2.976   2.983   3.007   3.018   3.027
  3.035   3.046   3.059   3.067   3.073   3.092   3.115   3.142
  3.172   3.174   3.189   3.202   3.220   3.226   3.229   3.243
  3.252   3.253   3.259   3.260   3.265   3.267   3.274   3.278
  3.290   3.299   3.304   3.307   3.321   3.335   3.336   3.350
  3.353   3.369   3.377   3.398   3.406   3.417   3.434   3.437
  3.449   3.471   3.479   3.485   3.508   3.514   3.538   3.548
  3.551   3.557   3.561   3.564   3.578   3.583   3.592   3.594
  3.607   3.640   3.743   3.771   3.854   3.862   3.913   3.925
  3.928   3.939   3.954   3.965   3.966   3.994   4.003   4.006
  4.030   4.061   4.084   4.091   4.099   4.117   4.120   4.126
  4.130   4.136   4.147   4.159   4.169   4.173   4.196   4.198
  4.211   4.213   4.216   4.260   4.262   4.271   4.272   4.285
  4.296   4.314   4.339   4.353   4.360   4.393   4.396   4.417
  4.437   4.443   4.446   4.451   4.478   4.488   4.499   4.501
  4.506   4.507   4.536   4.543   4.584   4.603   4.661   4.668
  4.678   4.697   4.708   4.742   4.774   4.783   4.805   4.847
 --------------------------------------------------------------
 
          Ground-State Mulliken Net Atomic Charges

     Atom                 Charge (a.u.)
  ----------------------------------------
      1 C                     0.249159
      2 C                    -0.113338
      3 N                    -0.454963
      4 C                    -0.081595
      5 C                     0.093194
      6 C                     0.021389
      7 C                     0.006964
      8 C                     0.071196
      9 C                     0.245638
     10 N                    -0.509629
     11 N                    -0.564322
     12 C                     0.222394
     13 C                     0.233257
     14 S                     0.621933
     15 N                    -0.545830
     16 C                    -0.198905
     17 S                     0.350935
     18 C                    -0.099770
     19 C                    -0.198980
     20 S                     0.254891
     21 C                     0.102502
     22 C                     0.060101
     23 C                    -0.303893
     24 C                    -0.070587
     25 N                    -0.432123
     26 S                     0.259594
     27 C                     0.129218
     28 C                    -0.305919
     29 C                    -0.238459
     30 H                     0.086260
     31 H                     0.105741
     32 H                     0.105522
     33 H                     0.113160
     34 H                     0.139282
     35 H                     0.116416
     36 H                     0.122022
     37 H                     0.136468
     38 H                     0.116964
     39 C                    -0.182535
     40 H                     0.107840
     41 H                     0.084877
     42 H                     0.115699
     43 C                    -0.175701
     44 H                     0.107108
     45 C                    -0.177470
     46 H                     0.098238
     47 H                     0.086807
     48 H                     0.096751
     49 C                    -0.184026
     50 H                     0.104455
     51 C                    -0.332422
     52 H                     0.095221
     53 H                     0.102421
     54 H                     0.094251
     55 H                     0.098506
     56 C                     0.302926
     57 C                    -0.129361
     58 N                    -0.495095
     59 C                    -0.079966
     60 C                     0.073575
     61 C                     0.041080
     62 C                     0.087602
     63 C                     0.019193
     64 C                     0.199936
     65 N                    -0.521970
     66 N                    -0.566220
     67 C                     0.241303
     68 C                     0.333614
     69 S                     0.604920
     70 N                    -0.584880
     71 C                    -0.221734
     72 S                     0.320216
     73 C                    -0.119879
     74 C                    -0.251011
     75 S                     0.279270
     76 C                     0.175971
     77 C                     0.052710
     78 C                    -0.310032
     79 C                    -0.039256
     80 N                    -0.432464
     81 S                     0.273540
     82 C                     0.123497
     83 C                    -0.319875
     84 C                    -0.230137
     85 H                     0.086275
     86 H                     0.115684
     87 H                     0.102418
     88 H                     0.107374
     89 H                     0.128461
     90 H                     0.133991
     91 H                     0.112892
     92 H                     0.138090
     93 H                     0.128719
     94 C                    -0.171276
     95 H                     0.100074
     96 H                     0.114287
     97 H                     0.094784
     98 C                    -0.184328
     99 H                     0.087158
    100 C                    -0.184001
    101 H                     0.085561
    102 H                     0.097763
    103 H                     0.092693
    104 C                    -0.173444
    105 H                     0.091227
    106 C                    -0.318559
    107 H                     0.096675
    108 H                     0.095186
    109 H                     0.104913
    110 H                     0.104000
  ----------------------------------------
  Sum of atomic charges =     0.000000

 -----------------------------------------------------------------
                    Cartesian Multipole Moments
 -----------------------------------------------------------------
    Charge (ESU x 10^10)
                 0.0000
    Dipole Moment (Debye)
         X      -3.2861      Y      -1.8510      Z       0.9615
       Tot       3.8922
    Quadrupole Moments (Debye-Ang)
        XX    -402.4486     XY       6.7532     YY    -406.9599
        XZ       5.9681     YZ       1.5424     ZZ    -444.7589
    Octopole Moments (Debye-Ang^2)
       XXX    -933.6549    XXY    -354.0935    XYY      36.1184
       YYY    -411.6921    XXZ     -85.9974    XYZ     140.9726
       YYZ      30.2199    XZZ    -110.7392    YZZ      -2.2338
       ZZZ       6.9195
    Hexadecapole Moments (Debye-Ang^3)
      XXXX -107593.1151   XXXY    3271.5107   XXYY  -27600.3767
      XYYY   -1805.8973   YYYY  -48142.6927   XXXZ   -1567.5130
      XXYZ    -761.2667   XYYZ    -384.4600   YYYZ     -59.5716
      XXZZ  -20581.8065   XYZZ     274.6060   YYZZ  -10483.2134
      XZZZ    -129.8677   YZZZ    -184.1444   ZZZZ   -8360.8139
 -----------------------------------------------------------------
Archival summary:
1\1\mn426\SP\ProcedureUnspecified\6-31G**\8105042\afmv_a\SatOct603:14:552018SatOct603:14:552018\0\\#,ProcedureUnspecified,6-31G**,\\0,1\S\N,1,1.60981\C,2,1.38319,1,105.629\C,3,1.37528,2,114.626,1,-2.19289,0\N,4,1.32954,3,113.554,2,0.499855,0\C,3,1.37976,2,122.752,1,173.559,0\C,6,1.42002,3,111.455,2,-178.558,0\H,7,1.08894,6,118.531,3,174.053,0\N,7,1.3592,6,129.858,3,-5.00559,0\C,9,1.29573,7,115.211,6,10.6768,0\C,6,1.43945,3,129.752,2,-5.46816,0\C,11,1.4077,6,124.341,3,163.887,0\H,12,1.08903,11,114.798,6,-10.7465,0\N,12,1.31906,11,123.618,6,174.111,0\C,14,1.31516,12,122.537,11,-5.6666,0\C,15,1.38687,14,119.395,12,10.5357,0\H,16,1.08561,15,122.343,14,179.957,0\C,16,1.39256,15,118.621,14,-8.22262,0\H,18,1.08518,16,112.824,15,-177.89,0\C,10,1.46675,9,114.169,7,179.393,0\C,20,1.40594,10,129.076,9,15.8479,0\C,21,1.36307,20,114.768,10,-166.068,0\C,22,1.31979,21,113.314,20,-12.1826,0\C,22,1.41759,21,112.352,20,176.081,0\H,24,1.084,22,129.059,21,163.044,0\C,24,1.38579,22,110.47,21,-5.88626,0\H,26,1.08167,24,128.212,22,174.228,0\C,23,1.45525,22,124.79,21,-171.62,0\N,28,1.32355,23,122.294,22,10.9591,0\C,29,1.33935,28,111.785,23,164.191,0\H,30,1.08177,29,121.588,28,-173.655,0\C,30,1.4055,29,114.929,28,8.31891,0\H,32,1.08281,30,129.945,29,-176.941,0\C,15,1.49751,14,121.623,12,-175.741,0\H,34,1.09632,15,111.519,14,-163.171,0\H,34,1.09682,15,108.594,14,-46.1137,0\C,34,1.52201,15,109.566,14,67.3491,0\H,37,1.09622,34,114.876,15,51.0402,0\H,37,1.09713,34,108.607,15,-79.5982,0\C,37,1.53144,34,108.61,15,169.924,0\H,40,1.0965,37,103.024,34,-69.487,0\H,40,1.09744,37,106.63,34,53.4175,0\C,40,1.56221,37,117.631,34,172.545,0\H,43,1.09625,40,102.757,37,176.213,0\H,43,1.09661,40,113.548,37,-65.6321,0\C,43,1.57685,40,111.47,37,61.0642,0\H,46,1.09657,43,106.414,40,71.2701,0\H,46,1.09723,43,117.202,40,-45.7934,0\C,46,1.4928,43,109.742,40,-171.517,0\H,49,1.09625,46,115.291,43,-29.0757,0\H,49,1.097,46,110.522,43,-155.789,0\H,49,1.09703,46,106.225,43,94.8259,0\S,21,1.71025,20,128.779,10,-0.43687,0\S,28,1.7128,23,123.436,22,-177.736,0\S,20,1.72197,10,121.516,9,-162.912,0\H,36,2.28702,34,119.612,15,-55.4977,0\C,56,1.09768,36,125.641,34,-91.0544,0\H,57,1.09727,56,108.389,36,-148.283,0\C,57,1.55326,56,102.009,36,-31.3888,0\H,59,1.09673,57,112.208,56,173.133,0\H,59,1.09689,57,115.773,56,52.6209,0\H,59,1.09752,57,110.31,56,-70.0019,0\C,57,1.60808,56,109.051,36,92.2716,0\H,63,1.09687,57,109.066,56,176.971,0\H,63,1.09731,57,108.093,56,-66.1012,0\C,63,1.52669,57,105.229,56,50.2896,0\H,66,1.09691,63,109.915,57,71.6329,0\H,66,1.09694,63,112.195,57,-51.9083,0\C,66,1.57193,63,108.954,57,-172.739,0\H,69,1.09601,66,115.735,63,43.6451,0\H,69,1.097,66,103.15,63,-75.7245,0\C,69,1.5801,66,111.345,63,169.427,0\H,72,1.09738,69,109.454,66,-71.5018,0\H,72,1.09779,69,116.692,66,51.9772,0\C,72,1.4719,69,107.168,66,175.161,0\C,75,1.36533,72,121.478,69,84.3939,0\H,76,1.08696,75,121.128,72,-2.59544,0\N,75,1.36596,72,113.993,69,-81.8226,0\C,78,1.3314,75,114.942,72,175.785,0\H,79,1.08907,78,110.265,75,-179.292,0\C,76,1.40277,75,122.673,72,-172.036,0\H,81,1.08619,76,121.873,75,173.486,0\C,81,1.40412,76,114.732,75,2.65561,0\C,83,1.51267,81,117.682,76,172.372,0\C,84,1.39079,83,118.044,81,-130.757,0\C,85,1.3473,84,120.899,83,-172.63,0\N,86,1.34414,85,114.043,84,-177.191,0\N,85,1.38358,84,125.818,83,6.92409,0\C,84,1.4035,83,122.33,81,46.5667,0\H,89,1.08933,84,118.211,83,-1.67979,0\N,89,1.36209,84,121.669,83,176.098,0\C,91,1.38277,89,117.248,84,-4.00586,0\C,92,1.47413,91,114.849,89,-174.13,0\C,93,1.36946,92,120.106,91,143.172,0\C,94,1.37763,93,110.949,92,-167.897,0\C,95,1.39394,94,115.716,93,-17.8242,0\C,96,1.45559,95,126.894,94,-168.729,0\N,97,1.32158,96,117.133,95,168.283,0\C,98,1.37716,97,111.145,96,162.337,0\H,99,1.0826,98,121.975,97,170.985,0\C,99,1.36484,98,114.223,97,0,0\H,101,1.08286,99,135.13,98,-178.606,0\C,95,1.46491,94,110.276,93,175.749,0\H,103,1.08414,95,123.13,94,160.663,0\C,103,1.39726,95,112.899,94,-11.8231,0\H,105,1.08196,103,132.815,95,167.643,0\S,87,1.60453,86,108.904,85,-0.250359,0\S,97,1.72877,96,121.181,95,-36.4291,0\S,94,1.73534,93,131.162,92,-3.4168,0\S,96,1.74642,95,110.119,94,17.9568,0\\\@

 Total job time:  100.55s(wall), 1104.65s(cpu) 
 Sat Oct  6 03:14:55 2018

        *************************************************************
        *                                                           *
        *  Thank you very much for using Q-Chem.  Have a nice day.  *
        *                                                           *
        *************************************************************


