
Running Job 1 of 1 ./9/90.qcin
qchem ./9/90.qcin_29375.0 /tmpu/cab_g/afmv_a/scratch_qchem/qchem29375/ 1
/tmpu/appuserlic/qchem4.4/serial-multicore/exe/qcprog.exe_s ./9/90.qcin_29375.0 /tmpu/cab_g/afmv_a/scratch_qchem/qchem29375/
Check license passed

                  Welcome to Q-Chem
     A Quantum Leap Into The Future Of Chemistry


 Q-Chem 4.4, Q-Chem, Inc., Pleasanton, CA (2016)

 Y. Shao,  Z. Gan,  E. Epifanovsky,  A. T. B. Gilbert,  M. Wormit,  
 J. Kussmann,  A. W. Lange,  A. Behn,  J. Deng,  X. Feng,  D. Ghosh,  
 M. Goldey,  P. R. Horn,  L. D. Jacobson,  I. Kaliman,  F. Rob,  
 R. Z. Khaliullin,  T. Kus,  A. Landau,  J. Liu,  E. I. Proynov,  Y. M. Rhee,  
 R. M. Richard,  M. A. Rohrdanz,  R. P. Steele,  E. J. Sundstrom,  
 H. L. Woodcock III,  P. M. Zimmerman,  D. Zuev,  B. Albrecht,  E. Alguire,  
 B. Austin,  S. A. Baeppler,  G. J. O. Beran,  Y. A. Bernard,  E. Berquist,  
 K. Brandhorst,  K. B. Bravaya,  S. T. Brown,  D. Casanova,  C.-M. Chang,  
 Y. Chen,  S. H. Chien,  K. D. Closser,  M. P. Coons,  D. L. Crittenden,  
 S. Dasgupta,  M. Diedenhofen,  R. A. DiStasio Jr.,  H. Do,  A. D. Dutoi,  
 R. G. Edgar,  P.-T. Fang,  S. Fatehi,  Q. Feng,  L. Fusti-Molnar,  
 A. Ghysels,  A. Golubeva-Zadorozhnaya,  J. Gomes,  A. Gunina,  
 M. W. D. Hanson-Heine,  P. H. P. Harbach,  A. W. Hauser,  J. E. Herr,  
 E. G. Hohenstein,  Z. C. Holden,  K. Hui,  T.-C. Jagau,  H. Ji,  B. Kaduk,  
 K. Khistyaev,  Jaehoon Kim,  Jihan Kim,  R. A. King,  P. Klunzinger,  
 K. Koh,  D. Kosenkov,  T. Kowalczyk,  C. M. Krauter,  A. Kunitsa,  
 K. U. Lao,  A. Laurent,  K. V. Lawler,  J. Lee,  D. Lefrancois,  S. Lehtola,  
 S. V. Levchenko,  C. Y. Lin,  Y.-S. Lin,  F. Liu,  E. Livshits,  
 R. C. Lochan,  A. Luenser,  P. Manohar,  S. F. Manzer,  S.-P. Mao,  Y. Mao,  
 N. Mardirossian,  A. V. Marenich,  L. A. Martinez-Martinez,  S. A. Maurer,  
 N. J. Mayhall,  J.-M. Mewes,  A. F. Morrison,  K. Nanda,  T. S. Nguyen-Beck,  
 C. M. Oana,  R. Olivares-Amaya,  D. P. O'Neill,  J. A. Parkhill,  
 T. M. Perrine,  R. Peverati,  P. A. Pieniazek,  F. Plasser,  A. Prociuk,  
 D. R. Rehn,  E. Rosta,  N. J. Russ,  N. Sergueev,  S. M. Sharada,  
 S. Sharma,  D. W. Small,  A. Sodt,  T. Stauch,  T. Stein,  D. Stuck,  
 Y.-C. Su,  A. J. W. Thom,  T. Tsuchimochi,  L. Vogt,  O. Vydrov,  T. Wang,  
 M. A. Watson,  J. Wenzel,  A. White,  C. F. Williams,  V. Vanovschi,  
 K. Yao,  S. Yeganeh,  S. R. Yost,  Z.-Q. You,  I. Y. Zhang,  X. Zhang,  
 Y. Zhao,  B. R. Brooks,  G. K. L. Chan,  D. M. Chipman,  C. J. Cramer,  
 W. A. Goddard III,  M. S. Gordon,  W. J. Hehre,  A. Klamt,  
 H. F. Schaefer III,  M. W. Schmidt,  C. D. Sherrill,  D. G. Truhlar,  
 A. Warshel,  X. Xu,  A. Aspuru-Guzik,  R. Baer,  A. T. Bell,  N. A. Besley,  
 J.-D. Chai,  A. Dreuw,  B. D. Dunietz,  T. R. Furlani,  S. R. Gwaltney,  
 C.-P. Hsu,  Y. Jung,  J. Kong,  D. S. Lambrecht,  W. Liang,  C. Ochsenfeld,  
 V. A. Rassolov,  L. V. Slipchenko,  J. E. Subotnik,  T. Van Voorhis,  
 J. M. Herbert,  A. I. Krylov,  P. M. W. Gill,  M. Head-Gordon

 Contributors to earlier versions of Q-Chem not listed above: 
 R. D. Adamson,  J. Baker,  E. F. C. Byrd,  A. K. Chakraborty,  C.-L. Cheng,  
 H. Dachsel,  R. J. Doerksen,  G. Hawkins,  A. Heyden,  S. Hirata,  
 G. Kedziora,  F. J. Keil,  C. Kelley,  P. P. Korambath,  W. Kurlancheek,  
 A. M. Lee,  M. S. Lee,  D. Liotard,  I. Lotan,  P. E. Maslen,  N. Nair,  
 D. Neuhauser,  R. Olson,  B. Peters,  J. Ritchie,  N. E. Schultz,  
 N. Shenvi,  A. C. Simmonett,  K. S. Thanthiriwatte,  Q. Wu,  W. Zhang

 Please cite Q-Chem as follows:
 Y. Shao et al., Mol. Phys. 113, 184-215 (2015)
 DOI: 10.1080/00268976.2014.952696

 Q-Chem 4.4.2 for Intel X86 Linux

 Parts of Q-Chem use Armadillo 5.200.1 (Boston Tea Smuggler).
 http://arma.sourceforge.net/

 Q-Chem begins on Sat Oct  6 03:19:56 2018  

Host: 
0

     Scratch files written to /tmpu/cab_g/afmv_a/scratch_qchem/qchem29375//
 Dec716 11556_ 22328  22283 4050   
Processing $rem in /tmpu/appuserlic/qchem4.4/serial-multicore/config/preferences.
 MEM_TOTAL  2000 
FILE_GEOM_ORG=        593

Checking the input file for inconsistencies... 	...done.

--------------------------------------------------------------
User input:
--------------------------------------------------------------
$comment
SP
$end

$rem
MEM_STATIC 5000
MEM_TOTAL 20000
JOBTYPE SP
EXCHANGE B3LYP
BASIS 6-31g(d,p)
$end

$molecule
0 1
C          23.084000     21.687000     -1.982000
C          23.206000     22.753000     -1.063000
N          21.850000     21.195000     -2.160000
C          22.077000     23.296000     -0.370000
C          20.795000     21.737000     -1.551000
C          20.793000     22.762000     -0.657000
C          19.594000     23.551000     -0.257000
C          19.518000     24.957000     -0.331000
C          18.468000     22.863000      0.309000
N          18.491000     25.678000      0.038000
N          18.381000     21.546000      0.546000
C          17.307000     23.655000      0.687000
C          17.406000     25.046000      0.594000
S          16.892000     21.414000      1.209000
N          16.295000     22.937000      1.219000
C          16.196000     25.808000      0.891000
S          14.534000     25.295000      0.762000
C          16.204000     27.103000      1.401000
C          13.872000     26.876000      1.292000
S          17.596000     28.083000      1.714000
C          14.932000     27.667000      1.598000
C          12.487000     27.286000      1.109000
C          16.432000     29.422000      1.863000
C          15.086000     29.038000      1.978000
N          12.231000     28.600000      1.209000
S          11.237000     26.220000      0.514000
C          10.957000     28.787000      0.662000
C          10.228000     27.600000      0.357000
C          24.317000     21.126000     -2.727000
H          24.202000     23.142000     -0.877000
H          22.210000     24.176000      0.251000
H          19.812000     21.454000     -1.923000
H          20.368000     25.478000     -0.769000
H          16.884000     30.403000      1.920000
H          14.209000     29.639000      2.192000
H          10.567000     29.796000      0.687000
H           9.174000     27.495000      0.137000
H          24.039000     20.822000     -3.744000
C          24.781000     19.836000     -1.930000
H          25.152000     21.837000     -2.698000
H          23.915000     19.187000     -1.748000
H          24.918000     20.230000     -0.915000
C          25.996000     19.139000     -2.631000
H          26.581000     19.963000     -3.056000
C          25.706000     18.145000     -3.788000
H          26.604000     18.513000     -1.966000
H          25.004000     17.370000     -3.455000
H          26.661000     17.640000     -3.975000
C          25.097000     18.675000     -5.102000
H          24.001000     18.702000     -5.072000
C          25.276000     17.602000     -6.215000
H          25.479000     19.680000     -5.321000
H          24.727000     17.901000     -7.116000
H          24.969000     16.582000     -5.949000
H          26.320000     17.600000     -6.552000
C          27.431000     30.342000      1.328000
C          26.153000     30.439000      1.857000
N          27.708000     29.654000      0.215000
C          25.130000     29.794000      1.136000
C          26.771000     29.023000     -0.428000
C          25.419000     29.025000     -0.009000
C          24.352000     28.249000     -0.714000
C          24.734000     27.131000     -1.427000
C          22.906000     28.564000     -0.816000
N          23.971000     26.368000     -2.201000
N          22.200000     29.444000     -0.080000
C          22.110000     27.754000     -1.613000
C          22.676000     26.679000     -2.398000
S          20.703000     29.213000     -0.460000
N          20.770000     27.944000     -1.435000
C          21.964000     25.787000     -3.343000
S          20.225000     25.552000     -3.656000
C          22.605000     24.793000     -4.042000
C          20.425000     24.188000     -4.665000
S          24.319000     24.527000     -4.364000
C          21.785000     23.936000     -4.826000
C          19.410000     23.690000     -5.485000
C          23.879000     23.138000     -5.363000
C          22.543000     23.000000     -5.565000
N          18.503000     24.606000     -5.867000
S          19.402000     22.112000     -6.130000
C          17.712000     24.012000     -6.811000
C          18.141000     22.760000     -7.166000
C          28.506000     31.039000      2.159000
H          26.000000     30.963000      2.796000
H          24.143000     29.905000      1.576000
H          27.119000     28.461000     -1.294000
H          25.760000     26.789000     -1.297000
H          24.602000     22.530000     -5.891000
H          22.122000     22.193000     -6.154000
H          16.953000     24.566000     -7.347000
H          17.778000     22.144000     -7.979000
H          29.022000     31.696000      1.447000
C          29.665000     30.136000      2.777000
H          28.227000     31.729000      2.965000
H          30.240000     29.655000      1.975000
H          29.223000     29.305000      3.339000
C          30.632000     30.994000      3.684000
H          31.295000     31.662000      3.120000
C          31.573000     30.159000      4.501000
H          30.149000     31.576000      4.479000
H          32.272000     29.546000      3.919000
H          31.061000     29.547000      5.254000
C          32.539000     30.916000      5.449000
H          33.479000     30.361000      5.553000
C          31.970000     31.046000      6.913000
H          32.745000     31.896000      5.000000
H          32.671000     31.668000      7.484000
H          31.873000     30.042000      7.343000
H          30.990000     31.540000      6.921000
$end

--------------------------------------------------------------
 ----------------------------------------------------------------
             Standard Nuclear Orientation (Angstroms)
    I     Atom           X                Y                Z
 ----------------------------------------------------------------
    1      C      -0.9244291087    -4.0797488141    -1.6691937048
    2      C      -1.4103263797    -2.7539390634    -1.7131635473
    3      N       0.4002573654    -4.2313232440    -1.8060693323
    4      C      -0.5413645106    -1.6278045553    -1.8758452609
    5      C       1.2101766128    -3.1769781543    -1.9063551466
    6      C       0.8565515801    -1.8644934387    -1.9532401936
    7      C       1.7808786840    -0.7170648908    -1.7315441572
    8      C       1.5539480460     0.3033372019    -0.7853042011
    9      C       2.9374652254    -0.5855257244    -2.5721278948
   10      N       2.3318826039     1.3359907476    -0.5873762388
   11      N       3.2784319086    -1.3967654249    -3.5839870101
   12      C       3.8276488972     0.5406413589    -2.3325663561
   13      C       3.4379822195     1.4922836366    -1.3860633948
   14      S       4.6482099352    -0.6967368078    -4.1387681320
   15      N       4.8858152487     0.5990507823    -3.1689659686
   16      C       4.3937403493     2.5592095431    -1.1011976242
   17      S       6.1288235503     2.5344447713    -1.2770583415
   18      C       4.0261318690     3.8339199243    -0.6802861739
   19      C       6.3413229504     4.2100280321    -0.6721040116
   20      S       2.4216754547     4.3900310005    -0.3448862847
   21      C       5.0998920897     4.7083617652    -0.4409549070
   22      C       7.6129177042     4.7660136721    -0.2319440973
   23      C       3.2268141393     5.7831613165     0.4173194758
   24      C       4.5934005985     5.9213979435     0.1245241814
   25      N       7.5548580309     5.8721520844     0.5264877633
   26      S       9.1400874953     3.9353455144    -0.4069407854
   27      C       8.8211838641     6.0094028392     1.1051371515
   28      C       9.8307779685     5.1302335464     0.6139995954
   29      C      -1.8822241243    -5.2785247026    -1.4805138775
   30      H      -2.4838325781    -2.6116143044    -1.6406300730
   31      H      -0.9537756315    -0.6263993081    -1.8063139851
   32      H       2.2745224452    -3.3581752683    -1.7681612433
   33      H       0.6820440651     0.1986619760    -0.1414008348
   34      H       2.5657036757     6.4293552532     0.9788177849
   35      H       5.2755394465     6.7301561388     0.3626896145
   36      H       8.9706283066     6.8777180732     1.7332303078
   37      H      10.9023289882     5.1935034994     0.7485964947
   38      H      -1.4002292129    -6.0567674684    -0.8755278421
   39      C      -2.1594250007    -5.8700976945    -2.9254381209
   40      H      -2.8490074872    -4.9509028748    -1.0785426508
   41      H      -1.2068736299    -6.0137816161    -3.4510632884
   42      H      -2.5250345037    -4.9891307261    -3.4680769438
   43      C      -3.0761292960    -7.1382794897    -2.8561332191
   44      H      -3.7613091346    -6.9400182851    -2.0236387245
   45      C      -2.4097970149    -8.5127153976    -2.5773640921
   46      H      -3.6200183170    -7.3548115766    -3.7840683397
   47      H      -1.6093378206    -8.7003647589    -3.3042552775
   48      H      -3.1922901496    -9.2539328817    -2.7781628356
   49      C      -1.7501408729    -8.7662110259    -1.2066085557
   50      H      -0.7033140285    -8.4400734250    -1.1814525759
   51      C      -1.5250472586   -10.2954492399    -1.0252185073
   52      H      -2.3092470553    -8.2534230317    -0.4139177270
   53      H      -0.9317298688   -10.4827041593    -0.1221608845
   54      H      -1.0417403539   -10.8101913615    -1.8659681633
   55      H      -2.4829827970   -10.7780250283    -0.7950248655
   56      C      -7.5083289030     3.2523737892     1.0973520890
   57      C      -6.3733838801     3.9850307349     0.7848659373
   58      N      -7.4628928532     1.9838238615     1.5187291723
   59      C      -5.1400893455     3.3305397970     0.9665833094
   60      C      -6.3268897383     1.3651181350     1.6463189331
   61      C      -5.0837025231     1.9789168815     1.3613528884
   62      C      -3.7813080638     1.2483537807     1.4493087202
   63      C      -3.7997359244    -0.1217924147     1.2862847431
   64      C      -2.4415488334     1.7994581394     1.7684860854
   65      N      -2.7834840502    -0.9648681625     1.4272436434
   66      N      -2.0613019047     3.0917139655     1.7728624897
   67      C      -1.3797583775     0.9159427272     1.8985881386
   68      C      -1.5747867137    -0.5147520038     1.8132503692
   69      S      -0.5115337887     3.0791681028     1.9647775432
   70      N      -0.1549693617     1.5183292717     1.9187454590
   71      C      -0.5545452118    -1.5722721452     2.0040157445
   72      S       1.2198629740    -1.4831095004     2.1483785262
   73      C      -0.8522241141    -2.9095362224     1.9009135666
   74      C       1.4740544197    -3.1704182768     2.0649950609
   75      S      -2.4001787088    -3.7551078929     1.9337939986
   76      C       0.2412336022    -3.8137275311     1.9919811233
   77      C       2.6814011554    -3.7784990169     2.4159661044
   78      C      -1.5246029665    -5.2869186388     1.8452222289
   79      C      -0.1763531372    -5.1631320724     1.9531262778
   80      N       3.4087536549    -3.0938372897     3.3158692440
   81      S       3.1310531514    -5.3467069697     1.9212844904
   82      C       4.4391529056    -3.9083261539     3.6960511403
   83      C       4.3534058941    -5.1704637687     3.1695284996
   84      C      -8.8191375607     3.9995080429     0.8616275252
   85      H      -6.4770688646     4.9920988245     0.3914586588
   86      H      -4.2760855205     3.9425475078     0.7236142737
   87      H      -6.4134102253     0.3234749566     1.9535610105
   88      H      -4.7324600599    -0.5655565294     0.9403958916
   89      H      -2.0113833130    -6.2534553545     1.8505768040
   90      H       0.4930859669    -6.0149872626     1.9130635665
   91      H       5.1260072530    -3.6264467125     4.4828599391
   92      H       4.9569640261    -6.0331226393     3.4219789983
   93      H      -9.3594564214     3.9152533606     1.8133657651
   94      C      -9.8264528389     3.4034322681    -0.2203260787
   95      H      -8.8188227907     5.0813887594     0.6796631987
   96      H     -10.1590601411     2.4018104875     0.0818596111
   97      H      -9.2974056217     3.2466374592    -1.1675818149
   98      C     -11.0796517486     4.3453871862    -0.4103666668
   99      H     -11.7855276323     4.3217001933     0.4293161085
  100      C     -11.9204288449     3.9794104285    -1.5975270970
  101      H     -10.8571055558     5.3936989651    -0.6460647919
  102      H     -12.3751690311     2.9822639344    -1.5527584434
  103      H     -11.3998302832     4.1212899605    -2.5527989620
  104      C     -13.1562409015     4.8716913491    -1.8830307215
  105      H     -13.9551668735     4.2760629486    -2.3406168880
  106      C     -12.8472540557     6.0174904624    -2.9201558446
  107      H     -13.5069000102     5.2707100171    -0.9226874015
  108      H     -13.7432572722     6.6471813606    -2.9908213153
  109      H     -12.5936819945     5.5603366074    -3.8840212723
  110      H     -12.0124066636     6.6470722579    -2.5867542930
 ----------------------------------------------------------------
 Molecular Point Group                 C1    NOp =  1
 Largest Abelian Subgroup              C1    NOp =  1
 Nuclear Repulsion Energy = 11960.0196353302 hartrees
 There are      270 alpha and      270 beta electrons
 Requested basis set is 6-31G(d,p)
 There are 406 shells and 1262 basis functions

 Total QAlloc Memory Limit  20000 MB
 Mega-Array Size      4888 MB
 MEM_STATIC part      5000 MB
 A cutoff of  1.0D-08 yielded  14391 shell pairs
 There are    151559 function pairs
 
 -------------------------------------------------------
 OpenMP Integral Computing Module                       
 Release: version 1.0, May 2013, Q-Chem Inc. Pittsburgh 
 -------------------------------------------------------
 Integral Job Info:
 Integral job number is                      11
 Integral operator is                         1
 short-range coefficients                     0
 long-range coefficients              100000000
 Omega coefficients                           0
 if combine SR and LR in K                    0
 Integral screening is                        0
 Integral computing path is                   2
 max size of driver memory is            800000
 size of driver memory is                593474
 size of scratch memory is             15166112
 max col of scratch BK array               1296
 max len of scratch array in speh3          155
 max len of scratch index in speh4           18
 max int batch size is                      520
 min int batch size is                       52
 fixed nKL is                                52
 max L of basis functions is                  2
 order of int derivative is                   0
 number of shells is                        406
 number of basis is                        1262
 number of cartesian basis is              1262
 number of contracted shell pairs         14391
 number of primitive shell pairs          45514
 maxK2 (contraction) of shell pair           36
 max number of K2 of shell pair               1
 max number of CS2 of shell pair           1540
 max number of PS2 of shell pair           8742
 mem total for path MDJ                  326552
 -------------------------------------------------------
 Smallest overlap matrix eigenvalue = 4.54E-04

 Scale SEOQF with 1.000000e-02/1.000000e-02/1.000000e-01

 Standard Electronic Orientation quadrupole field applied
 Nucleus-field energy     =    -0.0000000954 hartrees
 Guess from superposition of atomic densities
 Warning:  Energy on first SCF cycle will be non-variational
 A restricted hybrid HF-DFT SCF calculation will be
 performed using Pulay DIIS extrapolation
 Exchange:     0.2000 Hartree-Fock + 0.0800 Slater + 0.7200 B88
 Correlation:  0.1900 VWN1RPA + 0.8100 LYP
 Using SG-1 standard quadrature grid
 SCF converges when DIIS error is below 1.0E-05
 using 16 threads for integral computing 
 -------------------------------------------------------
 OpenMP BLAS3 based DFT computing Module                
 Release: version 1.0, May 2013, Q-Chem Inc. Pittsburgh 
 -------------------------------------------------------
 ---------------------------------------
  Cycle       Energy         DIIS Error
 ---------------------------------------
    1   -5680.3072361779      2.16E-02
    2   -5662.4888333948      2.15E-03
    3   -5660.1813458796      3.55E-03
    4   -5662.2654966948      1.75E-03
    5   -5663.4563377574      3.97E-04
    6   -5663.4689407061      3.38E-04
    7   -5663.4913420861      1.27E-04
    8   -5663.4941022543      5.70E-05
    9   -5663.4946956410      2.09E-05
   10   -5663.4947766505      5.99E-06 Convergence criterion met
 ---------------------------------------
 SCF time:  CPU 1181.02 s  wall 105.33 s
 SCF   energy in the final basis set = -5663.4947766505
 Total energy in the final basis set = -5663.4947766505
 
 --------------------------------------------------------------
 
                    Orbital Energies (a.u.)
 --------------------------------------------------------------
 
 Alpha MOs
 -- Occupied --
-88.987 -88.985 -88.933 -88.929 -88.918 -88.918 -88.907 -88.907
-14.392 -14.386 -14.384 -14.380 -14.347 -14.347 -14.346 -14.342
-14.327 -14.321 -10.270 -10.267 -10.262 -10.260 -10.258 -10.256
-10.255 -10.253 -10.238 -10.236 -10.235 -10.235 -10.232 -10.231
-10.231 -10.231 -10.229 -10.228 -10.228 -10.227 -10.226 -10.226
-10.226 -10.226 -10.223 -10.220 -10.218 -10.217 -10.215 -10.208
-10.207 -10.206 -10.204 -10.202 -10.197 -10.195 -10.194 -10.193
-10.187 -10.187 -10.187 -10.183 -10.182 -10.181 -10.181 -10.177
-10.177 -10.175 -10.174 -10.170  -8.044  -8.041  -7.995  -7.991
 -7.977  -7.977  -7.967  -7.966  -6.009  -6.006  -6.003  -6.002
 -6.000  -5.998  -5.958  -5.955  -5.954  -5.952  -5.951  -5.948
 -5.942  -5.942  -5.938  -5.937  -5.934  -5.934  -5.932  -5.931
 -5.929  -5.927  -5.923  -5.923  -1.056  -1.038  -0.973  -0.961
 -0.961  -0.957  -0.951  -0.935  -0.917  -0.912  -0.909  -0.908
 -0.845  -0.840  -0.831  -0.827  -0.816  -0.813  -0.808  -0.807
 -0.804  -0.799  -0.798  -0.790  -0.787  -0.777  -0.766  -0.758
 -0.747  -0.744  -0.739  -0.738  -0.720  -0.714  -0.711  -0.707
 -0.694  -0.692  -0.673  -0.671  -0.650  -0.650  -0.648  -0.640
 -0.633  -0.632  -0.628  -0.620  -0.611  -0.608  -0.600  -0.594
 -0.593  -0.589  -0.584  -0.583  -0.578  -0.577  -0.562  -0.560
 -0.550  -0.545  -0.541  -0.537  -0.526  -0.521  -0.520  -0.511
 -0.507  -0.504  -0.501  -0.497  -0.489  -0.486  -0.480  -0.474
 -0.473  -0.468  -0.467  -0.466  -0.462  -0.459  -0.448  -0.443
 -0.441  -0.441  -0.438  -0.436  -0.434  -0.433  -0.431  -0.429
 -0.428  -0.426  -0.422  -0.420  -0.417  -0.416  -0.414  -0.412
 -0.407  -0.406  -0.405  -0.402  -0.398  -0.395  -0.395  -0.393
 -0.391  -0.391  -0.390  -0.386  -0.385  -0.385  -0.383  -0.381
 -0.380  -0.377  -0.374  -0.373  -0.366  -0.363  -0.360  -0.356
 -0.353  -0.352  -0.350  -0.349  -0.346  -0.345  -0.342  -0.340
 -0.336  -0.334  -0.332  -0.331  -0.328  -0.326  -0.320  -0.320
 -0.317  -0.316  -0.309  -0.308  -0.306  -0.303  -0.300  -0.300
 -0.298  -0.295  -0.293  -0.292  -0.290  -0.288  -0.285  -0.278
 -0.272  -0.271  -0.268  -0.260  -0.249  -0.247  -0.247  -0.242
 -0.241  -0.236  -0.231  -0.227  -0.194  -0.190
 -- Virtual --
 -0.112  -0.106  -0.071  -0.069  -0.038  -0.032  -0.022  -0.019
 -0.015  -0.012  -0.011  -0.006  -0.006  -0.002   0.004   0.007
  0.015   0.017   0.022   0.027   0.032   0.034   0.038   0.040
  0.042   0.050   0.060   0.069   0.075   0.080   0.082   0.087
  0.095   0.099   0.100   0.101   0.103   0.108   0.110   0.111
  0.115   0.116   0.119   0.120   0.123   0.127   0.128   0.129
  0.131   0.132   0.133   0.135   0.139   0.144   0.148   0.148
  0.150   0.151   0.155   0.158   0.159   0.161   0.162   0.164
  0.167   0.169   0.170   0.171   0.175   0.176   0.179   0.181
  0.183   0.184   0.186   0.191   0.193   0.195   0.196   0.198
  0.200   0.204   0.206   0.211   0.214   0.215   0.217   0.221
  0.223   0.226   0.228   0.229   0.231   0.234   0.236   0.236
  0.240   0.241   0.242   0.245   0.249   0.253   0.255   0.258
  0.260   0.262   0.267   0.267   0.271   0.272   0.276   0.282
  0.282   0.286   0.287   0.294   0.295   0.297   0.304   0.307
  0.308   0.311   0.313   0.316   0.320   0.323   0.326   0.329
  0.330   0.336   0.336   0.338   0.341   0.346   0.348   0.351
  0.356   0.358   0.360   0.361   0.364   0.367   0.370   0.373
  0.375   0.376   0.384   0.388   0.392   0.395   0.402   0.403
  0.412   0.416   0.418   0.420   0.425   0.433   0.437   0.438
  0.441   0.446   0.454   0.462   0.464   0.465   0.468   0.473
  0.475   0.479   0.482   0.489   0.493   0.495   0.501   0.502
  0.505   0.507   0.508   0.510   0.511   0.513   0.514   0.518
  0.519   0.524   0.525   0.526   0.529   0.532   0.536   0.537
  0.538   0.540   0.544   0.547   0.548   0.551   0.553   0.555
  0.556   0.558   0.561   0.563   0.564   0.568   0.568   0.570
  0.571   0.574   0.576   0.580   0.581   0.582   0.586   0.587
  0.588   0.589   0.591   0.594   0.595   0.598   0.603   0.603
  0.606   0.608   0.612   0.613   0.616   0.617   0.619   0.621
  0.621   0.623   0.623   0.626   0.628   0.628   0.631   0.634
  0.637   0.639   0.641   0.642   0.646   0.647   0.649   0.652
  0.657   0.659   0.663   0.667   0.669   0.671   0.675   0.675
  0.681   0.682   0.684   0.689   0.694   0.697   0.698   0.701
  0.706   0.709   0.714   0.716   0.716   0.718   0.719   0.724
  0.728   0.732   0.736   0.739   0.741   0.745   0.749   0.751
  0.752   0.757   0.759   0.763   0.764   0.767   0.770   0.776
  0.777   0.779   0.780   0.786   0.787   0.790   0.792   0.794
  0.798   0.801   0.801   0.804   0.808   0.809   0.813   0.814
  0.818   0.819   0.822   0.823   0.824   0.827   0.827   0.829
  0.830   0.832   0.835   0.836   0.837   0.839   0.841   0.843
  0.846   0.848   0.850   0.851   0.853   0.854   0.855   0.858
  0.858   0.860   0.864   0.865   0.867   0.871   0.872   0.878
  0.879   0.881   0.883   0.885   0.885   0.888   0.889   0.891
  0.893   0.895   0.897   0.901   0.903   0.906   0.907   0.908
  0.911   0.916   0.917   0.920   0.923   0.926   0.928   0.929
  0.932   0.933   0.936   0.938   0.939   0.946   0.947   0.949
  0.950   0.953   0.955   0.962   0.962   0.966   0.968   0.972
  0.974   0.975   0.977   0.980   0.981   0.983   0.986   0.992
  0.992   0.993   0.997   0.999   1.001   1.003   1.005   1.007
  1.009   1.013   1.017   1.017   1.021   1.025   1.028   1.033
  1.035   1.039   1.042   1.044   1.045   1.049   1.052   1.053
  1.055   1.060   1.064   1.070   1.072   1.079   1.085   1.092
  1.095   1.101   1.105   1.110   1.112   1.115   1.117   1.122
  1.126   1.133   1.136   1.138   1.140   1.145   1.148   1.153
  1.155   1.159   1.164   1.171   1.178   1.181   1.185   1.189
  1.194   1.195   1.203   1.209   1.216   1.222   1.227   1.232
  1.238   1.244   1.247   1.250   1.254   1.264   1.268   1.274
  1.282   1.285   1.288   1.296   1.299   1.303   1.305   1.306
  1.309   1.318   1.320   1.322   1.326   1.331   1.332   1.338
  1.338   1.349   1.352   1.355   1.358   1.366   1.370   1.370
  1.375   1.379   1.381   1.385   1.389   1.390   1.391   1.393
  1.403   1.404   1.405   1.411   1.418   1.430   1.432   1.435
  1.442   1.445   1.449   1.452   1.453   1.463   1.466   1.469
  1.472   1.483   1.488   1.490   1.495   1.498   1.504   1.518
  1.521   1.523   1.529   1.532   1.541   1.548   1.555   1.564
  1.569   1.573   1.584   1.594   1.600   1.601   1.606   1.612
  1.614   1.618   1.619   1.629   1.633   1.639   1.650   1.658
  1.662   1.666   1.669   1.669   1.680   1.684   1.687   1.687
  1.693   1.694   1.699   1.700   1.702   1.708   1.710   1.713
  1.718   1.721   1.729   1.732   1.737   1.740   1.744   1.748
  1.754   1.759   1.761   1.766   1.769   1.771   1.773   1.781
  1.785   1.793   1.799   1.802   1.804   1.805   1.810   1.811
  1.818   1.823   1.828   1.830   1.834   1.838   1.842   1.849
  1.854   1.856   1.858   1.861   1.865   1.867   1.869   1.874
  1.879   1.881   1.883   1.887   1.888   1.891   1.892   1.897
  1.899   1.900   1.904   1.906   1.916   1.921   1.923   1.926
  1.928   1.931   1.933   1.939   1.943   1.950   1.951   1.953
  1.967   1.968   1.973   1.976   1.980   1.984   1.986   1.997
  2.001   2.009   2.010   2.014   2.019   2.024   2.030   2.036
  2.038   2.041   2.046   2.052   2.054   2.059   2.065   2.069
  2.070   2.076   2.086   2.090   2.095   2.096   2.097   2.098
  2.106   2.110   2.112   2.114   2.115   2.129   2.129   2.130
  2.137   2.139   2.144   2.146   2.151   2.154   2.161   2.162
  2.166   2.168   2.171   2.174   2.180   2.181   2.186   2.189
  2.192   2.196   2.203   2.208   2.210   2.214   2.220   2.221
  2.223   2.230   2.232   2.236   2.244   2.248   2.254   2.256
  2.264   2.266   2.269   2.271   2.272   2.279   2.281   2.285
  2.287   2.290   2.292   2.296   2.302   2.303   2.312   2.315
  2.318   2.322   2.324   2.326   2.328   2.331   2.336   2.341
  2.346   2.347   2.353   2.354   2.360   2.362   2.362   2.366
  2.370   2.379   2.380   2.380   2.383   2.390   2.393   2.394
  2.404   2.407   2.408   2.412   2.416   2.417   2.423   2.424
  2.426   2.429   2.432   2.433   2.435   2.440   2.443   2.447
  2.449   2.452   2.459   2.464   2.466   2.471   2.475   2.476
  2.487   2.489   2.494   2.495   2.497   2.498   2.501   2.509
  2.510   2.512   2.515   2.519   2.524   2.525   2.533   2.535
  2.541   2.548   2.549   2.550   2.553   2.553   2.563   2.566
  2.568   2.574   2.575   2.579   2.583   2.584   2.588   2.596
  2.600   2.605   2.610   2.615   2.625   2.626   2.629   2.632
  2.640   2.644   2.653   2.655   2.656   2.658   2.669   2.672
  2.678   2.683   2.686   2.689   2.690   2.695   2.698   2.701
  2.709   2.713   2.719   2.726   2.729   2.732   2.737   2.742
  2.744   2.747   2.761   2.763   2.774   2.781   2.783   2.784
  2.792   2.793   2.798   2.799   2.806   2.814   2.818   2.822
  2.845   2.850   2.854   2.856   2.860   2.864   2.865   2.875
  2.877   2.878   2.886   2.890   2.893   2.898   2.905   2.910
  2.916   2.920   2.922   2.925   2.926   2.932   2.943   2.952
  2.962   2.966   2.967   2.975   2.981   2.984   3.022   3.034
  3.041   3.048   3.054   3.068   3.074   3.092   3.095   3.112
  3.159   3.174   3.180   3.183   3.214   3.216   3.229   3.241
  3.244   3.245   3.247   3.248   3.265   3.269   3.270   3.277
  3.280   3.287   3.310   3.316   3.318   3.320   3.332   3.337
  3.344   3.356   3.383   3.390   3.394   3.395   3.415   3.421
  3.437   3.450   3.456   3.462   3.473   3.476   3.527   3.537
  3.547   3.550   3.561   3.565   3.586   3.589   3.591   3.591
  3.622   3.639   3.731   3.752   3.850   3.865   3.909   3.930
  3.945   3.953   3.959   3.964   3.965   3.977   3.979   3.985
  4.016   4.041   4.070   4.075   4.094   4.116   4.122   4.126
  4.132   4.147   4.159   4.162   4.175   4.185   4.193   4.202
  4.211   4.224   4.247   4.248   4.260   4.262   4.269   4.271
  4.285   4.297   4.323   4.336   4.371   4.379   4.384   4.405
  4.408   4.448   4.461   4.463   4.470   4.480   4.484   4.492
  4.494   4.503   4.537   4.541   4.595   4.606   4.657   4.673
  4.682   4.712   4.719   4.725   4.743   4.752   4.796   4.804
 --------------------------------------------------------------
 
          Ground-State Mulliken Net Atomic Charges

     Atom                 Charge (a.u.)
  ----------------------------------------
      1 C                     0.282372
      2 C                    -0.117734
      3 N                    -0.499866
      4 C                    -0.093817
      5 C                     0.091010
      6 C                     0.057305
      7 C                     0.004490
      8 C                     0.100936
      9 C                     0.214084
     10 N                    -0.494402
     11 N                    -0.532867
     12 C                     0.201241
     13 C                     0.252861
     14 S                     0.599569
     15 N                    -0.542526
     16 C                    -0.198947
     17 S                     0.312319
     18 C                    -0.129177
     19 C                    -0.259649
     20 S                     0.269022
     21 C                     0.183479
     22 C                     0.066248
     23 C                    -0.308475
     24 C                    -0.055287
     25 N                    -0.432699
     26 S                     0.292023
     27 C                     0.105201
     28 C                    -0.311994
     29 C                    -0.218299
     30 H                     0.087162
     31 H                     0.098853
     32 H                     0.094928
     33 H                     0.108594
     34 H                     0.124951
     35 H                     0.129207
     36 H                     0.112026
     37 H                     0.138961
     38 H                     0.123902
     39 C                    -0.187170
     40 H                     0.108397
     41 H                     0.111183
     42 H                     0.092025
     43 C                    -0.185585
     44 H                     0.088989
     45 C                    -0.165975
     46 H                     0.093136
     47 H                     0.095180
     48 H                     0.091330
     49 C                    -0.180161
     50 H                     0.108669
     51 C                    -0.327509
     52 H                     0.087189
     53 H                     0.094395
     54 H                     0.108871
     55 H                     0.101330
     56 C                     0.286201
     57 C                    -0.110932
     58 N                    -0.485090
     59 C                    -0.088801
     60 C                     0.076757
     61 C                     0.027765
     62 C                     0.057165
     63 C                     0.043328
     64 C                     0.215539
     65 N                    -0.523825
     66 N                    -0.522068
     67 C                     0.149326
     68 C                     0.296852
     69 S                     0.625514
     70 N                    -0.524378
     71 C                    -0.238353
     72 S                     0.356711
     73 C                    -0.110741
     74 C                    -0.225253
     75 S                     0.278298
     76 C                     0.143852
     77 C                     0.051087
     78 C                    -0.314988
     79 C                    -0.057735
     80 N                    -0.417746
     81 S                     0.292631
     82 C                     0.129701
     83 C                    -0.303859
     84 C                    -0.241176
     85 H                     0.095579
     86 H                     0.116540
     87 H                     0.103034
     88 H                     0.107914
     89 H                     0.122899
     90 H                     0.109820
     91 H                     0.117959
     92 H                     0.123892
     93 H                     0.115795
     94 C                    -0.174609
     95 H                     0.100672
     96 H                     0.115104
     97 H                     0.096486
     98 C                    -0.174431
     99 H                     0.097139
    100 C                    -0.174466
    101 H                     0.091314
    102 H                     0.087496
    103 H                     0.087489
    104 C                    -0.188392
    105 H                     0.094249
    106 C                    -0.324353
    107 H                     0.086996
    108 H                     0.102297
    109 H                     0.106603
    110 H                     0.101890
  ----------------------------------------
  Sum of atomic charges =     0.000000

 -----------------------------------------------------------------
                    Cartesian Multipole Moments
 -----------------------------------------------------------------
    Charge (ESU x 10^10)
                 0.0000
    Dipole Moment (Debye)
         X       1.5381      Y      -0.4232      Z       0.1872
       Tot       1.6062
    Quadrupole Moments (Debye-Ang)
        XX    -407.4852     XY      -6.4768     YY    -409.0841
        XZ      16.3128     YZ      -2.8121     ZZ    -450.8823
    Octopole Moments (Debye-Ang^2)
       XXX     486.6147    XXY     134.6758    XYY      51.0765
       YYY     -77.7695    XXZ      22.9869    XYZ       6.3054
       YYZ     123.9129    XZZ      53.7338    YZZ     -16.7921
       ZZZ     -11.6369
    Hexadecapole Moments (Debye-Ang^3)
      XXXX  -69085.3747   XXXY    1308.0710   XXYY  -18426.4781
      XYYY     -90.9155   YYYY  -44516.6456   XXXZ    1197.4644
      XXYZ     156.9588   XYYZ     647.5195   YYYZ      77.5880
      XXZZ  -14178.6394   XYZZ    -130.6908   YYZZ   -9373.7282
      XZZZ      69.5878   YZZZ      18.7957   ZZZZ  -10298.2460
 -----------------------------------------------------------------
Archival summary:
1\1\mn426\SP\ProcedureUnspecified\6-31G**\8105042\afmv_a\SatOct603:21:462018SatOct603:21:462018\0\\#,ProcedureUnspecified,6-31G**,\\0,1\S\C,1,1.70838\C,2,1.39249,1,109.094\C,2,1.39665,1,123.118,3,162.807,0\N,4,1.34448,2,114.466,1,-26.6398,0\C,5,1.36735,4,106.884,2,-171.048,0\H,6,1.0818,5,121.7,4,174.487,0\C,6,1.37024,5,113.246,4,5.78171,0\H,8,1.08268,6,127.549,5,170.755,0\C,3,1.41308,2,134.768,1,177.316,0\H,10,1.08416,3,124.671,2,4.15618,0\C,10,1.35821,3,112.493,2,178.391,0\H,12,1.08221,10,121.837,3,177.008,0\C,3,1.4218,2,112.982,1,-4.63927,0\C,14,1.37387,3,116.587,2,4.96307,0\C,15,1.48177,14,122.4,3,-174.71,0\N,16,1.34631,15,114.611,14,5.07858,0\C,17,1.32794,16,120.347,15,-176.702,0\H,18,1.08928,17,115.49,16,-178.13,0\C,18,1.37993,17,127.417,16,-2.3898,0\C,16,1.44645,15,127.264,14,-179.912,0\N,21,1.36506,16,123.941,15,-13.2047,0\C,21,1.38742,16,121.41,15,176.457,0\N,23,1.34705,21,113.239,16,175.228,0\C,20,1.49589,18,117.797,17,174.411,0\C,25,1.40922,20,121.314,18,153.497,0\H,26,1.08632,25,124.833,20,1.44128,0\C,26,1.40798,25,121.135,20,-175.025,0\H,28,1.08614,26,124.151,25,173.885,0\C,28,1.38655,26,116.249,25,-3.95536,0\N,30,1.33748,28,122.981,26,1.56097,0\C,31,1.29984,30,120.802,28,0.565016,0\H,32,1.08945,31,114.417,30,177.407,0\C,30,1.52709,28,114.161,26,179.069,0\H,34,1.09708,30,120.52,28,12.7695,0\H,34,1.09766,30,104.545,28,127.375,0\S,24,1.56166,23,105.832,21,1.34793,0\C,34,1.59393,30,117.664,28,-117.4,0\H,38,1.09625,34,109.575,30,52.6398,0\H,38,1.09781,34,110.232,30,-62.0608,0\C,38,1.57921,34,111.108,30,176.125,0\H,41,1.09722,38,113.926,34,72.8898,0\H,41,1.09729,38,115.77,34,-53.7976,0\C,41,1.50006,38,113.235,34,-168.687,0\H,44,1.09686,41,114.952,38,-62.5081,0\H,44,1.09713,41,113.052,38,65.6133,0\C,44,1.55078,41,116.871,38,178.59,0\H,47,1.09656,44,110.175,41,148.675,0\H,47,1.09747,44,107.621,41,29.6354,0\C,47,1.57606,44,112.533,41,-94.1986,0\H,50,1.09651,47,108.704,44,-63.8753,0\H,50,1.09742,47,107.425,44,174.976,0\H,50,1.0975,47,111.486,44,56.6567,0\S,4,1.70475,2,123.752,1,160.991,0\S,14,1.76415,3,111.642,2,175.678,0\H,22,2.58579,21,93.0643,16,-49.5018,0\C,56,1.08894,22,132.94,21,-168.245,0\N,57,1.30795,56,117.558,22,5.38864,0\C,58,1.37324,57,118.745,56,179.964,0\C,59,1.39762,58,122.749,57,5.17695,0\N,60,1.35007,59,127.49,58,-179.553,0\C,57,1.41,56,117.138,22,-172.155,0\C,62,1.43582,57,117.144,56,179.431,0\N,63,1.34098,62,126.239,57,175.396,0\C,59,1.46046,58,119.79,57,173.9,0\C,65,1.39183,59,123.725,58,39.0908,0\C,66,1.40531,65,114.808,59,-179.086,0\C,67,1.35754,66,116.187,65,-1.15043,0\C,67,1.431,66,108.925,65,173.576,0\H,69,1.08449,67,119.756,66,178.908,0\C,69,1.40442,67,110.081,66,-7.62024,0\H,71,1.08163,69,130.104,67,-169.667,0\C,68,1.45596,67,127.374,66,164.914,0\N,73,1.34244,68,116.595,67,-2.42593,0\C,74,1.39902,73,105.984,68,-164.854,0\H,75,1.08204,74,116.349,73,-178.088,0\C,75,1.42599,74,115.97,73,-8.9244,0\H,77,1.08182,75,128.489,74,-165.482,0\C,62,1.49001,57,123.87,56,-4.15166,0\C,79,1.3601,62,125.219,57,125.683,0\H,80,1.08847,79,114.788,62,4.79915,0\N,80,1.33329,79,127.427,62,-164.157,0\C,82,1.34034,80,121.24,79,3.43175,0\C,83,1.41273,82,116.288,80,-3.41145,0\H,84,1.08533,83,117.464,82,-177.821,0\C,79,1.41992,62,118.311,57,-37.4946,0\H,86,1.08523,79,122.103,62,-9.08017,0\C,83,1.54597,82,122.485,80,176.906,0\H,88,1.09708,83,111.046,82,-162.124,0\H,88,1.09726,83,110.189,82,-35.6418,0\C,88,1.58575,83,106.641,82,81.7282,0\H,91,1.09737,88,102.083,83,55.0742,0\H,91,1.0974,88,109.484,83,-49.199,0\C,91,1.56634,88,111.348,83,-177.533,0\H,94,1.09628,91,104.653,88,-34.5421,0\H,94,1.09716,91,114.361,88,-156.959,0\C,94,1.55267,91,118.261,88,84.3513,0\H,97,1.09637,94,105.028,91,168.706,0\H,97,1.09741,94,110.21,91,54.3867,0\C,97,1.5422,94,119.252,91,-66.2672,0\H,100,1.09674,97,112.32,94,87.5094,0\H,100,1.09723,97,110.326,94,-34.7285,0\C,100,1.55632,97,109.085,94,-164.111,0\H,103,1.09663,100,109.999,97,-172.091,0\H,103,1.09705,100,109.293,97,75.5406,0\H,103,1.09791,100,115.791,97,-49.0612,0\S,64,1.63527,63,102.123,62,-178.901,0\S,77,1.71672,75,110.433,74,9.33325,0\S,66,1.73091,65,126.703,59,-2.9391,0\S,65,1.74415,59,128.388,58,-143.923,0\\\@

 Total job time:  109.23s(wall), 1191.98s(cpu) 
 Sat Oct  6 03:21:46 2018

        *************************************************************
        *                                                           *
        *  Thank you very much for using Q-Chem.  Have a nice day.  *
        *                                                           *
        *************************************************************


