
Running Job 1 of 1 ./9/98.qcin
qchem ./9/98.qcin_30085.0 /tmpu/cab_g/afmv_a/scratch_qchem/qchem30085/ 1
/tmpu/appuserlic/qchem4.4/serial-multicore/exe/qcprog.exe_s ./9/98.qcin_30085.0 /tmpu/cab_g/afmv_a/scratch_qchem/qchem30085/
Check license passed

                  Welcome to Q-Chem
     A Quantum Leap Into The Future Of Chemistry


 Q-Chem 4.4, Q-Chem, Inc., Pleasanton, CA (2016)

 Y. Shao,  Z. Gan,  E. Epifanovsky,  A. T. B. Gilbert,  M. Wormit,  
 J. Kussmann,  A. W. Lange,  A. Behn,  J. Deng,  X. Feng,  D. Ghosh,  
 M. Goldey,  P. R. Horn,  L. D. Jacobson,  I. Kaliman,  F. Rob,  
 R. Z. Khaliullin,  T. Kus,  A. Landau,  J. Liu,  E. I. Proynov,  Y. M. Rhee,  
 R. M. Richard,  M. A. Rohrdanz,  R. P. Steele,  E. J. Sundstrom,  
 H. L. Woodcock III,  P. M. Zimmerman,  D. Zuev,  B. Albrecht,  E. Alguire,  
 B. Austin,  S. A. Baeppler,  G. J. O. Beran,  Y. A. Bernard,  E. Berquist,  
 K. Brandhorst,  K. B. Bravaya,  S. T. Brown,  D. Casanova,  C.-M. Chang,  
 Y. Chen,  S. H. Chien,  K. D. Closser,  M. P. Coons,  D. L. Crittenden,  
 S. Dasgupta,  M. Diedenhofen,  R. A. DiStasio Jr.,  H. Do,  A. D. Dutoi,  
 R. G. Edgar,  P.-T. Fang,  S. Fatehi,  Q. Feng,  L. Fusti-Molnar,  
 A. Ghysels,  A. Golubeva-Zadorozhnaya,  J. Gomes,  A. Gunina,  
 M. W. D. Hanson-Heine,  P. H. P. Harbach,  A. W. Hauser,  J. E. Herr,  
 E. G. Hohenstein,  Z. C. Holden,  K. Hui,  T.-C. Jagau,  H. Ji,  B. Kaduk,  
 K. Khistyaev,  Jaehoon Kim,  Jihan Kim,  R. A. King,  P. Klunzinger,  
 K. Koh,  D. Kosenkov,  T. Kowalczyk,  C. M. Krauter,  A. Kunitsa,  
 K. U. Lao,  A. Laurent,  K. V. Lawler,  J. Lee,  D. Lefrancois,  S. Lehtola,  
 S. V. Levchenko,  C. Y. Lin,  Y.-S. Lin,  F. Liu,  E. Livshits,  
 R. C. Lochan,  A. Luenser,  P. Manohar,  S. F. Manzer,  S.-P. Mao,  Y. Mao,  
 N. Mardirossian,  A. V. Marenich,  L. A. Martinez-Martinez,  S. A. Maurer,  
 N. J. Mayhall,  J.-M. Mewes,  A. F. Morrison,  K. Nanda,  T. S. Nguyen-Beck,  
 C. M. Oana,  R. Olivares-Amaya,  D. P. O'Neill,  J. A. Parkhill,  
 T. M. Perrine,  R. Peverati,  P. A. Pieniazek,  F. Plasser,  A. Prociuk,  
 D. R. Rehn,  E. Rosta,  N. J. Russ,  N. Sergueev,  S. M. Sharada,  
 S. Sharma,  D. W. Small,  A. Sodt,  T. Stauch,  T. Stein,  D. Stuck,  
 Y.-C. Su,  A. J. W. Thom,  T. Tsuchimochi,  L. Vogt,  O. Vydrov,  T. Wang,  
 M. A. Watson,  J. Wenzel,  A. White,  C. F. Williams,  V. Vanovschi,  
 K. Yao,  S. Yeganeh,  S. R. Yost,  Z.-Q. You,  I. Y. Zhang,  X. Zhang,  
 Y. Zhao,  B. R. Brooks,  G. K. L. Chan,  D. M. Chipman,  C. J. Cramer,  
 W. A. Goddard III,  M. S. Gordon,  W. J. Hehre,  A. Klamt,  
 H. F. Schaefer III,  M. W. Schmidt,  C. D. Sherrill,  D. G. Truhlar,  
 A. Warshel,  X. Xu,  A. Aspuru-Guzik,  R. Baer,  A. T. Bell,  N. A. Besley,  
 J.-D. Chai,  A. Dreuw,  B. D. Dunietz,  T. R. Furlani,  S. R. Gwaltney,  
 C.-P. Hsu,  Y. Jung,  J. Kong,  D. S. Lambrecht,  W. Liang,  C. Ochsenfeld,  
 V. A. Rassolov,  L. V. Slipchenko,  J. E. Subotnik,  T. Van Voorhis,  
 J. M. Herbert,  A. I. Krylov,  P. M. W. Gill,  M. Head-Gordon

 Contributors to earlier versions of Q-Chem not listed above: 
 R. D. Adamson,  J. Baker,  E. F. C. Byrd,  A. K. Chakraborty,  C.-L. Cheng,  
 H. Dachsel,  R. J. Doerksen,  G. Hawkins,  A. Heyden,  S. Hirata,  
 G. Kedziora,  F. J. Keil,  C. Kelley,  P. P. Korambath,  W. Kurlancheek,  
 A. M. Lee,  M. S. Lee,  D. Liotard,  I. Lotan,  P. E. Maslen,  N. Nair,  
 D. Neuhauser,  R. Olson,  B. Peters,  J. Ritchie,  N. E. Schultz,  
 N. Shenvi,  A. C. Simmonett,  K. S. Thanthiriwatte,  Q. Wu,  W. Zhang

 Please cite Q-Chem as follows:
 Y. Shao et al., Mol. Phys. 113, 184-215 (2015)
 DOI: 10.1080/00268976.2014.952696

 Q-Chem 4.4.2 for Intel X86 Linux

 Parts of Q-Chem use Armadillo 5.200.1 (Boston Tea Smuggler).
 http://arma.sourceforge.net/

 Q-Chem begins on Sat Oct  6 03:33:56 2018  

Host: 
0

     Scratch files written to /tmpu/cab_g/afmv_a/scratch_qchem/qchem30085//
 Dec716 11556_ 22328  22283 4050   
Processing $rem in /tmpu/appuserlic/qchem4.4/serial-multicore/config/preferences.
 MEM_TOTAL  2000 
FILE_GEOM_ORG=        593

Checking the input file for inconsistencies... 	...done.

--------------------------------------------------------------
User input:
--------------------------------------------------------------
$comment
SP
$end

$rem
MEM_STATIC 5000
MEM_TOTAL 20000
JOBTYPE SP
EXCHANGE B3LYP
BASIS 6-31g(d,p)
$end

$molecule
0 1
C          15.497000     16.387000    -14.884000
C          15.357000     17.572000    -14.182000
N          14.467000     15.598000    -15.203000
C          14.045000     18.072000    -13.882000
C          13.231000     16.033000    -14.818000
C          12.979000     17.166000    -14.067000
C          11.583000     17.598000    -13.664000
C          11.399000     18.370000    -12.519000
C          10.367000     17.150000    -14.141000
N          10.268000     18.908000    -12.080000
N          10.282000     16.213000    -15.114000
C           9.119000     17.653000    -13.677000
C           9.127000     18.555000    -12.563000
S           8.705000     16.249000    -15.505000
N           8.068000     17.190000    -14.333000
C           7.865000     19.155000    -12.040000
S           6.254000     18.412000    -12.097000
C           7.781000     20.411000    -11.462000
C           5.566000     19.828000    -11.296000
S           9.057000     21.675000    -11.271000
C           6.515000     20.791000    -11.107000
C           4.155000     20.029000    -11.035000
C           7.753000     22.736000    -10.714000
C           6.482000     22.159000    -10.704000
N           3.545000     19.035000    -10.413000
S           3.049000     21.384000    -11.536000
C           2.258000     19.398000    -10.083000
C           1.771000     20.456000    -10.829000
C          16.915000     15.786000    -15.033000
H          16.232000     18.156000    -13.910000
H          14.001000     19.006000    -13.330000
H          12.433000     15.322000    -15.028000
H          12.316000     18.670000    -12.014000
H           8.166000     23.679000    -10.381000
H           5.559000     22.653000    -10.424000
H           1.690000     18.791000     -9.391000
H           0.741000     20.789000    -10.835000
H          16.976000     15.349000    -16.037000
C          17.205000     14.716000    -13.933000
H          17.701000     16.514000    -14.795000
H          18.125000     14.129000    -14.040000
H          16.358000     14.020000    -13.880000
C          17.266000     15.286000    -12.468000
H          17.920000     16.164000    -12.394000
C          17.942000     14.258000    -11.460000
H          16.292000     15.661000    -12.131000
H          18.811000     13.750000    -11.895000
H          17.172000     13.513000    -11.225000
C          18.452000     14.761000    -10.098000
H          18.689000     13.927000     -9.426000
C          17.455000     15.512000     -9.235000
H          19.355000     15.360000    -10.273000
H          17.333000     16.602000     -9.272000
H          17.607000     15.276000     -8.175000
H          16.439000     15.115000     -9.351000
C          -0.081000     14.269000     -5.115000
C           0.389000     14.377000     -6.429000
N           0.438000     14.974000     -4.054000
C           1.316000     15.435000     -6.619000
C           1.460000     15.843000     -4.246000
C           1.948000     16.139000     -5.559000
C           2.817000     17.328000     -5.857000
C           2.493000     18.178000     -6.903000
C           3.801000     17.869000     -5.025000
N           3.109000     19.325000     -7.187000
N           4.258000     17.265000     -3.975000
C           4.454000     19.081000     -5.248000
C           4.031000     19.813000     -6.374000
S           5.330000     18.250000     -3.268000
N           5.354000     19.456000     -4.337000
C           4.431000     21.268000     -6.767000
S           3.890000     22.024000     -8.277000
C           4.957000     22.249000     -6.000000
C           4.615000     23.567000     -7.909000
S           5.259000     22.316000     -4.297000
C           5.000000     23.503000     -6.599000
C           4.712000     24.687000     -8.817000
C           5.432000     24.116000     -4.422000
C           5.368000     24.547000     -5.698000
N           5.754000     25.468000     -8.663000
S           3.756000     24.913000    -10.210000
C           5.719000     26.492000     -9.528000
C           4.691000     26.408000    -10.449000
C          -1.236000     13.327000     -4.871000
H          -0.057000     13.723000     -7.173000
H           1.639000     15.682000     -7.626000
H           1.918000     16.248000     -3.344000
H           1.622000     17.937000     -7.510000
H           5.528000     24.678000     -3.502000
H           5.276000     25.574000     -6.032000
H           6.406000     27.320000     -9.412000
H           4.397000     27.158000    -11.171000
H          -1.640000     13.092000     -5.863000
C          -2.372000     14.103000     -4.217000
H          -0.966000     12.397000     -4.354000
H          -2.754000     14.864000     -4.909000
H          -2.040000     14.599000     -3.296000
C          -3.546000     13.097000     -3.918000
H          -3.956000     12.664000     -4.839000
C          -4.605000     13.883000     -3.126000
H          -3.188000     12.283000     -3.275000
H          -4.843000     14.812000     -3.658000
H          -4.212000     14.236000     -2.164000
C          -5.794000     13.024000     -2.880000
H          -6.407000     12.769000     -3.753000
C          -6.821000     13.702000     -2.009000
H          -5.464000     12.054000     -2.490000
H          -6.287000     14.061000     -1.121000
H          -7.608000     12.994000     -1.722000
H          -7.306000     14.575000     -2.464000
$end

--------------------------------------------------------------
 ----------------------------------------------------------------
             Standard Nuclear Orientation (Angstroms)
    I     Atom           X                Y                Z
 ----------------------------------------------------------------
    1      C      10.8621382524    -2.2410441207    -0.4367313753
    2      C      10.3748601426    -1.1282124596     0.2271923686
    3      N      10.1449810809    -2.9384751519    -1.3224274564
    4      C       9.0899314115    -0.5936078314    -0.1256532738
    5      C       8.8824894830    -2.4810886402    -1.5715429800
    6      C       8.2742690161    -1.4190661447    -0.9286043494
    7      C       6.8650282707    -0.9581402439    -1.2439404169
    8      C       6.1167895504    -0.2985097954    -0.2713708879
    9      C       6.0661077575    -1.2909760493    -2.3199679910
   10      N       4.9162787417     0.2502002921    -0.4092731647
   11      N       6.4964371358    -2.1180263094    -3.3011547690
   12      C       4.7524820707    -0.7734760603    -2.4999410906
   13      C       4.1842251471     0.0084329183    -1.4414674641
   14      S       5.3396941881    -1.9599784027    -4.4316735049
   15      N       4.1869178189    -1.1115579376    -3.6467382484
   16      C       2.8277439881     0.6170012553    -1.5670717813
   17      S       1.4769247312    -0.0311327283    -2.5188221028
   18      C       2.4513978691     1.8100981450    -0.9724631618
   19      C       0.4662198913     1.3296918674    -2.0222003692
   20      S       3.4419840419     2.9796136372    -0.0167824892
   21      C       1.1788201276     2.2174769907    -1.2687221160
   22      C      -0.8817675248     1.5764211733    -2.4928356588
   23      C       2.0286954919     4.0448638059    -0.0819250429
   24      C       0.9348410127     3.5370361628    -0.7848215241
   25      N      -1.7165877234     0.5573426538    -2.3852521692
   26      S      -1.5869028160     3.0313962853    -3.3271579252
   27      C      -2.9943397487     0.9514826484    -2.7154663824
   28      C      -3.0399968294     2.1040961794    -3.4786481950
   29      C      12.1618740298    -2.8969339845     0.0873119395
   30      H      10.9842072638    -0.6215351476     0.9705894276
   31      H       8.7635832146     0.2801780861     0.4302163376
   32      H       8.3086278754    -3.1242793513    -2.2374360379
   33      H       6.6453809787    -0.0999386917     0.6597975280
   34      H       2.2070361230     4.9260769753     0.5200425388
   35      H      -0.0053364201     4.0474037917    -0.9579003449
   36      H      -3.8315753917     0.3075115381    -2.4824970990
   37      H      -3.9250379298     2.4893110957    -3.9686856619
   38      H      12.7299512683    -3.2317437659    -0.7889851913
   39      C      11.8575304837    -4.0873168434     1.0513470297
   40      H      12.7110021027    -2.2390870192     0.7729647159
   41      H      12.7074991947    -4.7075750593     1.3599745333
   42      H      11.1071854142    -4.7398955741     0.5868502300
   43      C      11.1580948935    -3.6738180612     2.3984381967
   44      H      11.6763393128    -2.8433239480     2.8941984713
   45      C      11.2323255527    -4.8332477137     3.4847331337
   46      H      10.1458304740    -3.2848204688     2.2345125488
   47      H      12.2052847746    -5.3388792302     3.4964430493
   48      H      10.4556511175    -5.5571046158     3.2091283316
   49      C      10.9720413458    -4.4992443833     4.9642083470
   50      H      10.8388736827    -5.4087232049     5.5628932779
   51      C       9.6687972226    -3.7892226474     5.2807567476
   52      H      11.8335138563    -3.9334963723     5.3418712942
   53      H       9.5748840138    -2.6962634260     5.3119569020
   54      H       9.2601667768    -4.1398155957     6.2360084126
   55      H       8.8572257123    -4.1186941036     4.6203619844
   56      C      -7.5042605191    -4.5286726736    -0.2482618325
   57      C      -6.4302019383    -4.3117940535    -1.1191934195
   58      N      -7.6046322472    -3.9637442507     1.0018935152
   59      C      -5.5437587231    -3.2897961545    -0.6896218650
   60      C      -6.6341097649    -3.1342574800     1.4563677264
   61      C      -5.5464445589    -2.7316612766     0.6169454867
   62      C      -4.6556985610    -1.5654728490     0.9398419385
   63      C      -4.4065612975    -0.5973754636    -0.0205278217
   64      C      -4.2381456274    -1.1643729725     2.2118204905
   65      N      -3.7402107392     0.5388755452     0.1810449405
   66      N      -4.3767394023    -1.8954483222     3.2712946991
   67      C      -3.5715850142     0.0282894666     2.4917048509
   68      C      -3.3658896964     0.8925030508     1.3992519608
   69      S      -3.8229278370    -1.0451130761     4.5320407955
   70      N      -3.2653845595     0.2608071267     3.7694852778
   71      C      -2.8318709309     2.3571317533     1.4333213294
   72      S      -2.5318165221     3.2905511771    -0.0441807962
   73      C      -2.7781586440     3.2258869899     2.4675869283
   74      C      -2.1073968912     4.7479370089     0.8147676972
   75      S      -3.3881972215     3.1028195969     4.0827059180
   76      C      -2.4445213738     4.5305180392     2.1214800125
   77      C      -1.5686359098     5.9481758336     0.2169078737
   78      C      -3.1886646090     4.8946703010     4.2698202964
   79      C      -2.5955247720     5.4564309283     3.1971399473
   80      N      -0.7568830787     6.6538769328     0.9668974067
   81      S      -1.6813201175     6.3648237703    -1.4320820493
   82      C      -0.3528813119     7.7612539946     0.3277381030
   83      C      -0.7661510397     7.8255232968    -0.9902750186
   84      C      -8.6151623904    -5.4290394640    -0.7342265174
   85      H      -6.4292295864    -4.8622328961    -2.0557745079
   86      H      -4.7538095331    -2.9584965370    -1.3571605086
   87      H      -6.7036067198    -2.8479323622     2.5054535666
   88      H      -4.8439620149    -0.7293257364    -1.0086779814
   89      H      -3.5797680471     5.3540302415     5.1684228481
   90      H      -2.5115908140     6.5155581155     2.9827718246
   91      H       0.1726641002     8.5360666925     0.8703948113
   92      H      -0.6558683923     8.6596377260    -1.6702094689
   93      H      -8.4545241929    -5.5401188501    -1.8132824657
   94      C      -9.9314356478    -4.6655865452    -0.6638535631
   95      H      -8.6401436593    -6.4197854476    -0.2621170680
   96      H      -9.9122160193    -3.8190108139    -1.3615993169
   97      H     -10.1196362496    -4.2842200918     0.3478880846
   98      C     -11.0862851904    -5.6341534395    -1.1198291163
   99      H     -10.9656125746    -5.9488613729    -2.1639684923
  100      C     -12.4068565643    -4.8788761344    -0.8913812256
  101      H     -11.1007481225    -6.5271238013    -0.4821742280
  102      H     -12.3466951155    -3.8892637012    -1.3601635122
  103      H     -12.5624953692    -4.6469380293     0.1699779398
  104      C     -13.5486166351    -5.6952187188    -1.3834043200
  105      H     -13.6282916372    -5.8273978208    -2.4692696795
  106      C     -14.8812124743    -5.0569651538    -1.0836131991
  107      H     -13.4568914575    -6.7158699278    -0.9938435399
  108      H     -14.8778784578    -4.8188770387    -0.0131535157
  109      H     -15.6993147546    -5.7484866206    -1.3192160853
  110      H     -15.0723420746    -4.1179425565    -1.6184823771
 ----------------------------------------------------------------
 Molecular Point Group                 C1    NOp =  1
 Largest Abelian Subgroup              C1    NOp =  1
 Nuclear Repulsion Energy = 11411.8665670886 hartrees
 There are      270 alpha and      270 beta electrons
 Requested basis set is 6-31G(d,p)
 There are 406 shells and 1262 basis functions

 Total QAlloc Memory Limit  20000 MB
 Mega-Array Size      4888 MB
 MEM_STATIC part      5000 MB
 A cutoff of  1.0D-08 yielded  13580 shell pairs
 There are    144330 function pairs
 
 -------------------------------------------------------
 OpenMP Integral Computing Module                       
 Release: version 1.0, May 2013, Q-Chem Inc. Pittsburgh 
 -------------------------------------------------------
 Integral Job Info:
 Integral job number is                      11
 Integral operator is                         1
 short-range coefficients                     0
 long-range coefficients              100000000
 Omega coefficients                           0
 if combine SR and LR in K                    0
 Integral screening is                        0
 Integral computing path is                   2
 max size of driver memory is            800000
 size of driver memory is                593474
 size of scratch memory is             15166112
 max col of scratch BK array               1296
 max len of scratch array in speh3          155
 max len of scratch index in speh4           18
 max int batch size is                      520
 min int batch size is                       52
 fixed nKL is                                52
 max L of basis functions is                  2
 order of int derivative is                   0
 number of shells is                        406
 number of basis is                        1262
 number of cartesian basis is              1262
 number of contracted shell pairs         13580
 number of primitive shell pairs          43823
 maxK2 (contraction) of shell pair           36
 max number of K2 of shell pair               1
 max number of CS2 of shell pair           1449
 max number of PS2 of shell pair           8352
 mem total for path MDJ                  307624
 -------------------------------------------------------
 Smallest overlap matrix eigenvalue = 3.74E-04

 Scale SEOQF with 1.000000e-02/1.000000e-02/1.000000e-02

 Standard Electronic Orientation quadrupole field applied
 Nucleus-field energy     =     0.0000000978 hartrees
 Guess from superposition of atomic densities
 Warning:  Energy on first SCF cycle will be non-variational
 A restricted hybrid HF-DFT SCF calculation will be
 performed using Pulay DIIS extrapolation
 Exchange:     0.2000 Hartree-Fock + 0.0800 Slater + 0.7200 B88
 Correlation:  0.1900 VWN1RPA + 0.8100 LYP
 Using SG-1 standard quadrature grid
 SCF converges when DIIS error is below 1.0E-05
 using 16 threads for integral computing 
 -------------------------------------------------------
 OpenMP BLAS3 based DFT computing Module                
 Release: version 1.0, May 2013, Q-Chem Inc. Pittsburgh 
 -------------------------------------------------------
 ---------------------------------------
  Cycle       Energy         DIIS Error
 ---------------------------------------
    1   -5680.6974484920      2.17E-02
    2   -5662.4585698341      2.17E-03
    3   -5660.8215921559      3.47E-03
    4   -5663.2904070422      9.30E-04
    5   -5663.4559902078      3.41E-04
    6   -5663.4700821312      2.21E-04
    7   -5663.4794693438      7.45E-05
    8   -5663.4805189327      2.49E-05
    9   -5663.4806319475      8.76E-06 Convergence criterion met
 ---------------------------------------
 SCF time:  CPU 985.95 s  wall 88.33 s
 SCF   energy in the final basis set = -5663.4806319475
 Total energy in the final basis set = -5663.4806319475
 
 --------------------------------------------------------------
 
                    Orbital Energies (a.u.)
 --------------------------------------------------------------
 
 Alpha MOs
 -- Occupied --
-88.990 -88.980 -88.935 -88.925 -88.923 -88.916 -88.903 -88.901
-14.390 -14.385 -14.378 -14.378 -14.347 -14.342 -14.342 -14.340
-14.332 -14.329 -10.270 -10.268 -10.266 -10.259 -10.257 -10.252
-10.251 -10.250 -10.240 -10.237 -10.234 -10.234 -10.234 -10.234
-10.233 -10.233 -10.233 -10.230 -10.225 -10.225 -10.224 -10.224
-10.224 -10.223 -10.222 -10.222 -10.221 -10.220 -10.218 -10.217
-10.217 -10.216 -10.204 -10.202 -10.199 -10.198 -10.198 -10.193
-10.187 -10.184 -10.180 -10.178 -10.178 -10.177 -10.177 -10.177
-10.171 -10.170 -10.166 -10.166  -8.046  -8.036  -7.996  -7.985
 -7.981  -7.976  -7.963  -7.962  -6.011  -6.005  -6.004  -6.001
 -5.996  -5.994  -5.959  -5.956  -5.953  -5.949  -5.946  -5.945
 -5.942  -5.941  -5.940  -5.938  -5.936  -5.932  -5.928  -5.926
 -5.924  -5.923  -5.919  -5.918  -1.060  -1.042  -0.985  -0.973
 -0.969  -0.961  -0.937  -0.931  -0.924  -0.916  -0.914  -0.907
 -0.843  -0.836  -0.835  -0.834  -0.813  -0.812  -0.810  -0.801
 -0.799  -0.797  -0.796  -0.793  -0.792  -0.779  -0.774  -0.763
 -0.751  -0.745  -0.745  -0.737  -0.720  -0.719  -0.710  -0.703
 -0.695  -0.691  -0.680  -0.670  -0.658  -0.654  -0.647  -0.646
 -0.638  -0.634  -0.629  -0.626  -0.611  -0.611  -0.597  -0.595
 -0.592  -0.589  -0.581  -0.579  -0.577  -0.573  -0.573  -0.558
 -0.554  -0.549  -0.544  -0.539  -0.527  -0.522  -0.517  -0.513
 -0.509  -0.507  -0.504  -0.494  -0.490  -0.483  -0.481  -0.480
 -0.477  -0.475  -0.470  -0.467  -0.465  -0.459  -0.451  -0.449
 -0.448  -0.444  -0.440  -0.438  -0.435  -0.434  -0.432  -0.432
 -0.430  -0.425  -0.423  -0.421  -0.421  -0.418  -0.415  -0.414
 -0.411  -0.409  -0.407  -0.402  -0.401  -0.399  -0.397  -0.396
 -0.392  -0.391  -0.389  -0.388  -0.387  -0.387  -0.386  -0.381
 -0.380  -0.373  -0.371  -0.369  -0.367  -0.363  -0.361  -0.355
 -0.352  -0.351  -0.349  -0.349  -0.344  -0.342  -0.339  -0.338
 -0.335  -0.333  -0.333  -0.329  -0.329  -0.327  -0.324  -0.320
 -0.315  -0.311  -0.310  -0.306  -0.304  -0.301  -0.300  -0.298
 -0.297  -0.294  -0.293  -0.288  -0.284  -0.283  -0.281  -0.278
 -0.272  -0.270  -0.265  -0.265  -0.256  -0.252  -0.249  -0.246
 -0.242  -0.237  -0.235  -0.233  -0.196  -0.192
 -- Virtual --
 -0.110  -0.105  -0.070  -0.060  -0.042  -0.038  -0.036  -0.029
 -0.023  -0.016  -0.013  -0.010  -0.006   0.000   0.003   0.005
  0.006   0.015   0.020   0.025   0.026   0.036   0.039   0.041
  0.045   0.049   0.064   0.068   0.076   0.079   0.085   0.087
  0.092   0.095   0.098   0.099   0.107   0.109   0.111   0.113
  0.114   0.115   0.118   0.119   0.120   0.122   0.124   0.127
  0.129   0.130   0.134   0.138   0.138   0.140   0.144   0.145
  0.147   0.150   0.154   0.158   0.159   0.162   0.167   0.167
  0.170   0.171   0.174   0.177   0.179   0.184   0.186   0.187
  0.190   0.191   0.194   0.194   0.199   0.201   0.202   0.204
  0.205   0.211   0.211   0.212   0.214   0.218   0.219   0.224
  0.226   0.227   0.228   0.230   0.234   0.234   0.237   0.242
  0.244   0.246   0.248   0.251   0.253   0.256   0.257   0.260
  0.264   0.269   0.270   0.273   0.276   0.283   0.285   0.285
  0.288   0.291   0.293   0.295   0.297   0.302   0.307   0.308
  0.310   0.314   0.316   0.320   0.320   0.325   0.325   0.328
  0.330   0.331   0.335   0.340   0.342   0.346   0.350   0.354
  0.356   0.361   0.362   0.367   0.371   0.372   0.373   0.376
  0.383   0.387   0.391   0.394   0.397   0.403   0.406   0.410
  0.413   0.416   0.419   0.425   0.427   0.432   0.432   0.435
  0.438   0.447   0.450   0.452   0.463   0.470   0.472   0.473
  0.480   0.482   0.484   0.486   0.488   0.495   0.496   0.500
  0.503   0.504   0.505   0.510   0.511   0.517   0.518   0.521
  0.523   0.525   0.527   0.531   0.533   0.535   0.540   0.542
  0.543   0.544   0.545   0.546   0.547   0.549   0.553   0.554
  0.555   0.557   0.560   0.561   0.562   0.564   0.566   0.567
  0.567   0.571   0.574   0.577   0.579   0.582   0.585   0.586
  0.588   0.590   0.592   0.593   0.595   0.599   0.601   0.602
  0.604   0.605   0.606   0.611   0.612   0.616   0.617   0.618
  0.619   0.622   0.623   0.626   0.627   0.628   0.630   0.634
  0.637   0.639   0.641   0.642   0.644   0.648   0.649   0.654
  0.658   0.660   0.663   0.666   0.670   0.672   0.674   0.677
  0.682   0.686   0.689   0.691   0.694   0.696   0.698   0.698
  0.709   0.711   0.713   0.716   0.717   0.722   0.728   0.732
  0.735   0.736   0.739   0.742   0.746   0.750   0.751   0.753
  0.756   0.759   0.760   0.764   0.765   0.767   0.770   0.770
  0.773   0.779   0.781   0.784   0.786   0.787   0.788   0.790
  0.795   0.796   0.797   0.800   0.804   0.806   0.807   0.809
  0.810   0.816   0.816   0.817   0.818   0.820   0.824   0.827
  0.831   0.831   0.834   0.836   0.839   0.840   0.842   0.847
  0.848   0.851   0.852   0.853   0.854   0.857   0.859   0.860
  0.861   0.862   0.863   0.866   0.867   0.870   0.874   0.876
  0.878   0.881   0.881   0.882   0.886   0.890   0.892   0.894
  0.896   0.902   0.905   0.906   0.910   0.911   0.914   0.915
  0.917   0.918   0.922   0.924   0.926   0.929   0.932   0.932
  0.933   0.935   0.941   0.942   0.946   0.948   0.949   0.952
  0.953   0.957   0.959   0.959   0.961   0.964   0.965   0.967
  0.967   0.970   0.971   0.974   0.976   0.978   0.979   0.981
  0.981   0.985   0.987   0.990   0.996   0.999   1.000   1.002
  1.004   1.008   1.012   1.017   1.019   1.022   1.023   1.024
  1.027   1.031   1.035   1.040   1.045   1.051   1.052   1.054
  1.059   1.060   1.061   1.064   1.070   1.073   1.077   1.080
  1.086   1.093   1.098   1.099   1.106   1.107   1.112   1.114
  1.117   1.122   1.128   1.134   1.138   1.143   1.147   1.149
  1.155   1.159   1.164   1.167   1.174   1.177   1.183   1.185
  1.191   1.201   1.208   1.210   1.212   1.216   1.223   1.225
  1.226   1.239   1.251   1.253   1.260   1.268   1.268   1.276
  1.277   1.279   1.283   1.289   1.296   1.301   1.302   1.306
  1.311   1.314   1.315   1.320   1.325   1.328   1.331   1.337
  1.340   1.344   1.350   1.357   1.358   1.362   1.364   1.374
  1.378   1.386   1.387   1.395   1.401   1.406   1.407   1.412
  1.415   1.416   1.423   1.426   1.430   1.432   1.436   1.440
  1.443   1.451   1.457   1.461   1.465   1.469   1.473   1.476
  1.484   1.486   1.494   1.498   1.499   1.505   1.507   1.512
  1.516   1.517   1.529   1.535   1.540   1.550   1.555   1.567
  1.570   1.579   1.589   1.592   1.594   1.601   1.602   1.610
  1.613   1.622   1.629   1.633   1.640   1.642   1.646   1.652
  1.655   1.660   1.674   1.676   1.678   1.680   1.683   1.687
  1.694   1.696   1.697   1.701   1.701   1.704   1.705   1.707
  1.712   1.714   1.724   1.725   1.739   1.742   1.746   1.759
  1.762   1.763   1.767   1.770   1.774   1.781   1.784   1.786
  1.792   1.796   1.799   1.799   1.810   1.813   1.820   1.821
  1.824   1.832   1.834   1.839   1.840   1.846   1.849   1.853
  1.855   1.858   1.860   1.863   1.867   1.869   1.871   1.873
  1.875   1.877   1.887   1.892   1.894   1.899   1.900   1.903
  1.905   1.910   1.911   1.918   1.921   1.923   1.924   1.926
  1.932   1.942   1.946   1.946   1.952   1.952   1.956   1.959
  1.962   1.968   1.971   1.976   1.981   1.986   1.988   1.991
  2.004   2.009   2.018   2.022   2.022   2.025   2.036   2.044
  2.045   2.051   2.052   2.059   2.061   2.066   2.067   2.072
  2.085   2.089   2.090   2.093   2.096   2.099   2.102   2.106
  2.110   2.111   2.112   2.116   2.118   2.120   2.125   2.128
  2.135   2.136   2.138   2.142   2.148   2.154   2.154   2.158
  2.163   2.170   2.171   2.176   2.180   2.184   2.185   2.186
  2.196   2.199   2.208   2.209   2.221   2.222   2.223   2.225
  2.230   2.233   2.237   2.243   2.249   2.251   2.251   2.252
  2.264   2.265   2.267   2.270   2.271   2.277   2.281   2.286
  2.290   2.292   2.297   2.301   2.304   2.305   2.308   2.309
  2.311   2.311   2.315   2.322   2.328   2.335   2.337   2.340
  2.341   2.342   2.345   2.357   2.360   2.362   2.368   2.372
  2.377   2.378   2.381   2.386   2.387   2.392   2.395   2.400
  2.401   2.407   2.408   2.413   2.419   2.421   2.427   2.428
  2.430   2.433   2.435   2.438   2.439   2.444   2.448   2.449
  2.452   2.461   2.463   2.467   2.472   2.473   2.474   2.480
  2.483   2.485   2.495   2.497   2.501   2.502   2.502   2.511
  2.518   2.519   2.524   2.525   2.531   2.531   2.537   2.539
  2.540   2.543   2.547   2.552   2.555   2.557   2.561   2.569
  2.569   2.575   2.578   2.584   2.592   2.593   2.597   2.602
  2.603   2.609   2.615   2.624   2.625   2.635   2.641   2.644
  2.650   2.655   2.657   2.660   2.671   2.672   2.674   2.678
  2.681   2.684   2.687   2.694   2.698   2.704   2.705   2.708
  2.713   2.716   2.718   2.723   2.726   2.731   2.737   2.745
  2.748   2.753   2.761   2.763   2.770   2.782   2.788   2.791
  2.799   2.801   2.806   2.821   2.831   2.837   2.839   2.840
  2.842   2.851   2.857   2.858   2.864   2.869   2.881   2.882
  2.883   2.886   2.901   2.903   2.906   2.909   2.910   2.914
  2.919   2.929   2.929   2.935   2.937   2.940   2.943   2.955
  2.958   2.974   2.991   2.994   2.996   2.997   3.019   3.025
  3.061   3.065   3.071   3.086   3.110   3.115   3.122   3.125
  3.135   3.163   3.169   3.199   3.201   3.209   3.231   3.237
  3.239   3.244   3.253   3.257   3.267   3.271   3.278   3.284
  3.291   3.297   3.305   3.311   3.316   3.316   3.324   3.334
  3.341   3.345   3.355   3.365   3.378   3.401   3.418   3.433
  3.441   3.450   3.467   3.474   3.482   3.510   3.525   3.552
  3.555   3.570   3.571   3.576   3.588   3.589   3.597   3.599
  3.645   3.668   3.708   3.726   3.846   3.861   3.917   3.930
  3.938   3.951   3.955   3.965   3.984   3.989   3.994   4.002
  4.007   4.052   4.078   4.082   4.097   4.111   4.127   4.129
  4.140   4.144   4.152   4.162   4.172   4.179   4.182   4.183
  4.206   4.211   4.230   4.239   4.265   4.265   4.271   4.281
  4.291   4.315   4.322   4.334   4.379   4.383   4.388   4.393
  4.430   4.439   4.472   4.474   4.477   4.488   4.490   4.492
  4.501   4.514   4.541   4.545   4.577   4.601   4.648   4.664
  4.678   4.685   4.716   4.726   4.742   4.787   4.795   4.799
 --------------------------------------------------------------
 
          Ground-State Mulliken Net Atomic Charges

     Atom                 Charge (a.u.)
  ----------------------------------------
      1 C                     0.265692
      2 C                    -0.110671
      3 N                    -0.472596
      4 C                    -0.099204
      5 C                     0.060114
      6 C                     0.060840
      7 C                     0.074765
      8 C                     0.034878
      9 C                     0.178781
     10 N                    -0.507030
     11 N                    -0.546091
     12 C                     0.220429
     13 C                     0.316006
     14 S                     0.587247
     15 N                    -0.556787
     16 C                    -0.234335
     17 S                     0.346277
     18 C                    -0.107323
     19 C                    -0.229232
     20 S                     0.259523
     21 C                     0.178801
     22 C                     0.022816
     23 C                    -0.320637
     24 C                    -0.028442
     25 N                    -0.392622
     26 S                     0.253731
     27 C                     0.157235
     28 C                    -0.301900
     29 C                    -0.218568
     30 H                     0.092629
     31 H                     0.106486
     32 H                     0.128409
     33 H                     0.095608
     34 H                     0.141686
     35 H                     0.073594
     36 H                     0.095431
     37 H                     0.130791
     38 H                     0.113670
     39 C                    -0.177037
     40 H                     0.095324
     41 H                     0.094437
     42 H                     0.116311
     43 C                    -0.191126
     44 H                     0.079014
     45 C                    -0.178034
     46 H                     0.104784
     47 H                     0.089643
     48 H                     0.092797
     49 C                    -0.175579
     50 H                     0.098785
     51 C                    -0.327297
     52 H                     0.092012
     53 H                     0.101968
     54 H                     0.096738
     55 H                     0.099976
     56 C                     0.275789
     57 C                    -0.114222
     58 N                    -0.486649
     59 C                    -0.108363
     60 C                     0.090249
     61 C                     0.043641
     62 C                     0.068940
     63 C                     0.067752
     64 C                     0.219984
     65 N                    -0.520808
     66 N                    -0.545723
     67 C                     0.225214
     68 C                     0.306337
     69 S                     0.600043
     70 N                    -0.558430
     71 C                    -0.245917
     72 S                     0.326981
     73 C                    -0.098954
     74 C                    -0.228011
     75 S                     0.260172
     76 C                     0.135704
     77 C                     0.027371
     78 C                    -0.321576
     79 C                    -0.017366
     80 N                    -0.409916
     81 S                     0.279198
     82 C                     0.129429
     83 C                    -0.315570
     84 C                    -0.225921
     85 H                     0.101177
     86 H                     0.100227
     87 H                     0.121519
     88 H                     0.101250
     89 H                     0.128345
     90 H                     0.106288
     91 H                     0.117545
     92 H                     0.130268
     93 H                     0.094041
     94 C                    -0.181251
     95 H                     0.117075
     96 H                     0.092753
     97 H                     0.124134
     98 C                    -0.181763
     99 H                     0.092069
    100 C                    -0.163071
    101 H                     0.093766
    102 H                     0.087591
    103 H                     0.093356
    104 C                    -0.170106
    105 H                     0.089259
    106 C                    -0.317460
    107 H                     0.090073
    108 H                     0.094627
    109 H                     0.094708
    110 H                     0.101485
  ----------------------------------------
  Sum of atomic charges =     0.000000

 -----------------------------------------------------------------
                    Cartesian Multipole Moments
 -----------------------------------------------------------------
    Charge (ESU x 10^10)
                 0.0000
    Dipole Moment (Debye)
         X      -2.4408      Y       3.8318      Z      -0.4571
       Tot       4.5661
    Quadrupole Moments (Debye-Ang)
        XX    -445.9291     XY       8.9415     YY    -411.9651
        XZ      25.8198     YZ      -1.2783     ZZ    -432.0453
    Octopole Moments (Debye-Ang^2)
       XXX      91.0422    XXY     135.1598    XYY     -95.0443
       YYY     346.0922    XXZ      75.0243    XYZ     -99.0125
       YYZ     -44.9884    XZZ     -92.7106    YZZ      19.5999
       ZZZ      36.4600
    Hexadecapole Moments (Debye-Ang^3)
      XXXX -116110.4111   XXXY     860.0415   XXYY  -25054.6493
      XYYY     324.9606   YYYY  -30777.9587   XXXZ    2878.0875
      XXYZ      31.0377   XYYZ     487.8894   YYYZ     -46.0660
      XXZZ  -21340.9369   XYZZ    -207.1821   YYZZ   -7869.4444
      XZZZ    -472.5397   YZZZ     104.2140   ZZZZ  -14861.7820
 -----------------------------------------------------------------
Archival summary:
1\1\mn426\SP\ProcedureUnspecified\6-31G**\8105042\afmv_a\SatOct603:35:282018SatOct603:35:282018\0\\#,ProcedureUnspecified,6-31G**,\\0,1\S\C,1,1.7441\C,2,1.3669,1,106.133\C,3,1.39038,2,116.513,1,-10.9608,0\C,4,1.35179,3,114.968,2,5.23116,0\C,3,1.42729,2,130.043,1,164.514,0\H,6,1.08386,3,118.468,2,-5.15473,0\C,6,1.34834,3,112.075,2,-167.83,0\H,8,1.08234,6,129.989,3,169.334,0\C,2,1.44509,1,125.521,3,177.337,0\N,10,1.31127,2,116.178,1,148.943,0\C,11,1.3409,10,110.998,2,178.088,0\H,12,1.08213,11,119.907,10,-168.904,0\C,12,1.38278,11,113.745,10,6.26005,0\H,14,1.08177,12,127.191,11,-172.961,0\C,5,1.55932,4,129.344,3,170.022,0\N,16,1.32257,5,111.604,4,-155.52,0\C,17,1.33256,16,120.587,5,169.952,0\H,18,1.08866,17,116.204,16,-168.728,0\C,18,1.38621,17,125.49,16,6.82678,0\C,20,1.39756,18,112.112,17,-5.8998,0\N,21,1.29467,20,123.419,18,-179.362,0\C,21,1.39466,20,124.811,18,3.79926,0\N,23,1.33437,21,116.799,20,-178.962,0\C,20,1.50256,18,119.98,17,-173.427,0\C,25,1.42079,20,120.092,18,-35.0366,0\H,26,1.086,25,116.538,20,-10.9688,0\C,26,1.41943,25,124.054,20,174.306,0\H,28,1.08636,26,128.694,25,172.975,0\C,28,1.3997,26,113.732,25,-13.2844,0\N,30,1.37554,28,123.908,26,9.3255,0\C,31,1.35518,30,120.259,28,-0.458604,0\H,32,1.08968,31,115.978,30,170.959,0\C,30,1.51027,28,117.167,26,-170.061,0\H,34,1.09659,30,105.621,28,13.8416,0\H,34,1.09777,30,114.607,28,-106.873,0\C,34,1.52328,30,108.781,28,123.684,0\H,37,1.09723,34,110.01,30,-64.8265,0\H,37,1.09749,34,111.403,30,55.8247,0\C,37,1.57471,34,108.184,30,177.829,0\H,40,1.09719,37,111.797,34,63.1345,0\H,40,1.09736,37,109.994,34,-57.758,0\C,40,1.53836,37,106.533,34,-174.062,0\H,43,1.09668,40,109.418,37,-51.2355,0\H,43,1.0975,40,111.66,37,62.5256,0\C,43,1.48732,40,109.9,37,-176.275,0\H,46,1.09631,43,109.221,40,-48.5111,0\H,46,1.09678,43,116.707,40,69.307,0\C,46,1.50767,43,112.358,40,-175.273,0\H,49,1.09662,46,106.459,43,51.4948,0\H,49,1.09681,46,110.466,43,171.396,0\H,49,1.09744,46,114.787,43,-66.5454,0\S,24,1.61176,23,103.444,21,-0.586907,0\S,10,1.70454,2,125.353,1,-19.8344,0\S,4,1.73087,3,112.555,2,172.357,0\H,19,2.06691,18,112.931,17,-26.9097,0\C,56,1.08164,19,146.24,18,-1.6462,0\N,57,1.37733,56,119.741,19,-55.6106,0\C,58,1.32175,57,110.23,56,167.025,0\C,57,1.38313,56,126.117,19,132.845,0\H,60,1.08251,57,124.982,56,2.1252,0\C,59,1.44895,58,115.459,57,-173.079,0\C,62,1.36517,59,123.652,58,136.807,0\C,63,1.36864,62,114.284,59,177.642,0\C,64,1.38516,63,114.588,62,-4.4585,0\C,63,1.42651,62,134.387,59,2.94471,0\H,66,1.08368,63,121.996,62,-2.72599,0\C,66,1.39588,63,111.92,62,177.681,0\H,68,1.08199,66,134.879,63,171.706,0\C,65,1.49204,64,124.208,63,-177.083,0\N,70,1.28832,65,120.498,64,-26.7191,0\C,71,1.32715,70,121.31,65,-178.965,0\H,72,1.089,71,116.906,70,175.906,0\C,72,1.39315,71,127.521,70,-13.2839,0\C,74,1.3809,72,110.327,71,15.6317,0\N,75,1.35349,74,121.885,72,169.413,0\C,75,1.42331,74,123.015,72,-12.0984,0\N,77,1.32261,75,114.29,74,-174.296,0\C,74,1.51587,72,119.871,71,-174.813,0\C,79,1.38246,74,123.083,72,-153.964,0\H,80,1.08923,79,120.408,74,9.01443,0\N,80,1.3657,79,125.391,74,179.76,0\C,82,1.33611,80,116.25,79,4.08128,0\C,83,1.38442,82,123.269,80,-1.17621,0\H,84,1.08658,83,120.367,82,-177.329,0\C,79,1.41118,74,118.545,72,37.8189,0\H,86,1.08582,79,126.036,74,-10.3824,0\C,83,1.5473,82,117.008,80,-167.269,0\H,88,1.09668,83,107.092,82,-50.2558,0\H,88,1.09746,83,112.198,82,-177.375,0\C,88,1.56173,83,111.621,82,71.6609,0\H,91,1.09655,88,116.99,83,-171.359,0\H,91,1.09756,88,108.977,83,-48.2501,0\C,91,1.57316,88,114.511,83,65.7252,0\H,94,1.09675,91,112.061,88,-66.328,0\H,94,1.0973,91,112.075,88,49.6467,0\C,94,1.59054,91,111.868,88,164.473,0\H,97,1.09656,94,112.633,91,-40.6503,0\H,97,1.09688,94,106.046,91,78.5697,0\C,97,1.53888,94,119.373,91,-162.853,0\H,100,1.09695,97,111.425,94,-167.594,0\H,100,1.09765,97,108.054,94,71.9945,0\C,100,1.51749,97,116.574,94,-53.9994,0\H,103,1.09654,100,110.62,97,-143.585,0\H,103,1.09696,100,111.671,97,-34.6135,0\H,103,1.09743,100,123.053,97,91.068,0\S,76,1.62515,75,102.625,74,169.6,0\S,60,1.73041,57,111.749,56,-167.238,0\S,62,1.76635,59,124.903,58,-52.0203,0\S,68,1.77098,66,115.154,63,-2.22391,0\\\@

 Total job time:  92.10s(wall), 997.95s(cpu) 
 Sat Oct  6 03:35:28 2018

        *************************************************************
        *                                                           *
        *  Thank you very much for using Q-Chem.  Have a nice day.  *
        *                                                           *
        *************************************************************


