
Running Job 1 of 1 ./7/1.qcin
qchem ./7/1.qcin_27766.0 /tmpu/cab_g/afmv_a/scratch_qchem/qchem27766/ 1
/tmpu/appuserlic/qchem4.4/serial-multicore/exe/qcprog.exe_s ./7/1.qcin_27766.0 /tmpu/cab_g/afmv_a/scratch_qchem/qchem27766/
Check license passed

                  Welcome to Q-Chem
     A Quantum Leap Into The Future Of Chemistry


 Q-Chem 4.4, Q-Chem, Inc., Pleasanton, CA (2016)

 Y. Shao,  Z. Gan,  E. Epifanovsky,  A. T. B. Gilbert,  M. Wormit,  
 J. Kussmann,  A. W. Lange,  A. Behn,  J. Deng,  X. Feng,  D. Ghosh,  
 M. Goldey,  P. R. Horn,  L. D. Jacobson,  I. Kaliman,  F. Rob,  
 R. Z. Khaliullin,  T. Kus,  A. Landau,  J. Liu,  E. I. Proynov,  Y. M. Rhee,  
 R. M. Richard,  M. A. Rohrdanz,  R. P. Steele,  E. J. Sundstrom,  
 H. L. Woodcock III,  P. M. Zimmerman,  D. Zuev,  B. Albrecht,  E. Alguire,  
 B. Austin,  S. A. Baeppler,  G. J. O. Beran,  Y. A. Bernard,  E. Berquist,  
 K. Brandhorst,  K. B. Bravaya,  S. T. Brown,  D. Casanova,  C.-M. Chang,  
 Y. Chen,  S. H. Chien,  K. D. Closser,  M. P. Coons,  D. L. Crittenden,  
 S. Dasgupta,  M. Diedenhofen,  R. A. DiStasio Jr.,  H. Do,  A. D. Dutoi,  
 R. G. Edgar,  P.-T. Fang,  S. Fatehi,  Q. Feng,  L. Fusti-Molnar,  
 A. Ghysels,  A. Golubeva-Zadorozhnaya,  J. Gomes,  A. Gunina,  
 M. W. D. Hanson-Heine,  P. H. P. Harbach,  A. W. Hauser,  J. E. Herr,  
 E. G. Hohenstein,  Z. C. Holden,  K. Hui,  T.-C. Jagau,  H. Ji,  B. Kaduk,  
 K. Khistyaev,  Jaehoon Kim,  Jihan Kim,  R. A. King,  P. Klunzinger,  
 K. Koh,  D. Kosenkov,  T. Kowalczyk,  C. M. Krauter,  A. Kunitsa,  
 K. U. Lao,  A. Laurent,  K. V. Lawler,  J. Lee,  D. Lefrancois,  S. Lehtola,  
 S. V. Levchenko,  C. Y. Lin,  Y.-S. Lin,  F. Liu,  E. Livshits,  
 R. C. Lochan,  A. Luenser,  P. Manohar,  S. F. Manzer,  S.-P. Mao,  Y. Mao,  
 N. Mardirossian,  A. V. Marenich,  L. A. Martinez-Martinez,  S. A. Maurer,  
 N. J. Mayhall,  J.-M. Mewes,  A. F. Morrison,  K. Nanda,  T. S. Nguyen-Beck,  
 C. M. Oana,  R. Olivares-Amaya,  D. P. O'Neill,  J. A. Parkhill,  
 T. M. Perrine,  R. Peverati,  P. A. Pieniazek,  F. Plasser,  A. Prociuk,  
 D. R. Rehn,  E. Rosta,  N. J. Russ,  N. Sergueev,  S. M. Sharada,  
 S. Sharma,  D. W. Small,  A. Sodt,  T. Stauch,  T. Stein,  D. Stuck,  
 Y.-C. Su,  A. J. W. Thom,  T. Tsuchimochi,  L. Vogt,  O. Vydrov,  T. Wang,  
 M. A. Watson,  J. Wenzel,  A. White,  C. F. Williams,  V. Vanovschi,  
 K. Yao,  S. Yeganeh,  S. R. Yost,  Z.-Q. You,  I. Y. Zhang,  X. Zhang,  
 Y. Zhao,  B. R. Brooks,  G. K. L. Chan,  D. M. Chipman,  C. J. Cramer,  
 W. A. Goddard III,  M. S. Gordon,  W. J. Hehre,  A. Klamt,  
 H. F. Schaefer III,  M. W. Schmidt,  C. D. Sherrill,  D. G. Truhlar,  
 A. Warshel,  X. Xu,  A. Aspuru-Guzik,  R. Baer,  A. T. Bell,  N. A. Besley,  
 J.-D. Chai,  A. Dreuw,  B. D. Dunietz,  T. R. Furlani,  S. R. Gwaltney,  
 C.-P. Hsu,  Y. Jung,  J. Kong,  D. S. Lambrecht,  W. Liang,  C. Ochsenfeld,  
 V. A. Rassolov,  L. V. Slipchenko,  J. E. Subotnik,  T. Van Voorhis,  
 J. M. Herbert,  A. I. Krylov,  P. M. W. Gill,  M. Head-Gordon

 Contributors to earlier versions of Q-Chem not listed above: 
 R. D. Adamson,  J. Baker,  E. F. C. Byrd,  A. K. Chakraborty,  C.-L. Cheng,  
 H. Dachsel,  R. J. Doerksen,  G. Hawkins,  A. Heyden,  S. Hirata,  
 G. Kedziora,  F. J. Keil,  C. Kelley,  P. P. Korambath,  W. Kurlancheek,  
 A. M. Lee,  M. S. Lee,  D. Liotard,  I. Lotan,  P. E. Maslen,  N. Nair,  
 D. Neuhauser,  R. Olson,  B. Peters,  J. Ritchie,  N. E. Schultz,  
 N. Shenvi,  A. C. Simmonett,  K. S. Thanthiriwatte,  Q. Wu,  W. Zhang

 Please cite Q-Chem as follows:
 Y. Shao et al., Mol. Phys. 113, 184-215 (2015)
 DOI: 10.1080/00268976.2014.952696

 Q-Chem 4.4.2 for Intel X86 Linux

 Parts of Q-Chem use Armadillo 5.200.1 (Boston Tea Smuggler).
 http://arma.sourceforge.net/

 Q-Chem begins on Fri Oct 12 05:38:32 2018  

Host: 
0

     Scratch files written to /tmpu/cab_g/afmv_a/scratch_qchem/qchem27766//
 Dec716 11556_ 22328  22283 4050   
Processing $rem in /tmpu/appuserlic/qchem4.4/serial-multicore/config/preferences.
 MEM_TOTAL  2000 
FILE_GEOM_ORG=        593

Checking the input file for inconsistencies... 	...done.

--------------------------------------------------------------
User input:
--------------------------------------------------------------
$comment
SP
$end

$rem
MEM_STATIC 5000
MEM_TOTAL 20000
JOBTYPE SP
EXCHANGE B3LYP
BASIS 6-31g(d,p)
$end

$molecule
0 1
O         -21.889000     33.238000     10.199000
C         -21.140000     34.458000      9.908000
H         -21.638000     35.350000     10.310000
H         -20.939000     34.558000      8.834000
H         -20.182000     34.481000     10.441000
O         -20.336000     32.021000      8.994000
C         -21.344000     32.092000      9.675000
C         -22.058000     30.892000     10.179000
H         -23.103000     30.859000      9.847000
H         -22.052000     30.836000     11.274000
C         -21.483000     29.565000      9.558000
H         -21.463000     29.629000      8.463000
H         -20.416000     29.474000      9.793000
C         -22.189000     28.309000      9.907000
H         -21.951000     28.162000     10.968000
H         -23.254000     28.406000      9.662000
C         -21.753000     27.051000      9.015000
C         -21.919000     27.324000      7.553000
C         -20.834000     27.684000      6.827000
H         -19.825000     27.575000      7.213000
C         -21.072000     28.071000      5.510000
H         -20.243000     28.257000      4.834000
C         -22.372000     28.016000      4.944000
H         -22.587000     28.250000      3.906000
C         -23.449000     27.663000      5.733000
H         -24.428000     27.790000      5.279000
C         -23.195000     27.306000      7.054000
H         -24.016000     27.128000      7.742000
C         -22.742000     21.646000      8.366000
C         -20.441000     22.014000      7.545000
C         -18.276000     20.031000     11.034000
C         -23.147000     23.550000     13.007000
C         -17.476000     23.012000     12.600000
C         -21.738000     22.436000      7.756000
C         -20.691000     23.316000     14.360000
C         -20.284000     19.428000      9.883000
C         -18.693000     25.085000      9.366000
C         -22.267000     24.573000     13.099000
C         -20.796000     26.029000      9.573000
C         -18.819000     25.598000     10.703000
C         -20.141000     25.235000     13.131000
C         -19.357000     22.872000     14.196000
C         -20.376000     24.240000      7.907000
C         -18.498000     20.905000     13.131000
C         -22.223000     25.704000      9.531000
C         -22.832000     25.355000     10.847000
C         -17.527000     21.636000     12.376000
C         -22.413000     20.257000     12.544000
C         -20.241000     19.443000     12.327000
C         -20.922000     19.344000     11.140000
C         -20.960000     19.921000      8.745000
C         -23.671000     24.209000     10.738000
C         -19.908000     25.259000      8.758000
C         -20.059000     20.745000      8.078000
C         -21.102000     24.538000     13.862000
C         -19.555000     23.074000      7.669000
C         -18.117000     25.012000     11.791000
C         -23.795000     22.000000     11.613000
C         -18.994000     19.753000      9.827000
C         -20.035000     26.156000     10.906000
C         -22.905000     20.327000     10.213000
C         -18.809000     24.802000     12.993000
C         -17.858000     23.913000      9.137000
C         -20.694000     21.106000     14.055000
C         -21.546000     22.236000     14.328000
C         -17.208000     23.401000     10.204000
C         -23.834000     23.361000     11.807000
C         -22.043000     25.433000     12.018000
C         -23.216000     21.354000     12.747000
C         -22.683000     24.505000      8.745000
C         -17.945000     21.720000      8.809000
C         -20.736000     25.883000     12.109000
C         -17.288000     23.875000     11.549000
C         -23.737000     21.461000     10.355000
C         -17.362000     21.074000     11.113000
C         -22.283000     20.463000      8.955000
C         -18.922000     19.883000     12.252000
C         -18.289000     22.901000      8.285000
C         -17.178000     21.986000     10.025000
C         -21.753000     23.856000      7.882000
C         -23.525000     23.713000      9.475000
C         -21.138000     20.048000     13.201000
C         -18.776000     20.578000      8.722000
C         -18.326000     23.593000     13.552000
C         -22.792000     22.363000     13.618000
C         -19.363000     21.498000     14.010000
C         -23.593000     22.305000      9.267000
C         -22.280000     19.749000     11.272000
O         -21.071000     17.084000      4.804000
C         -21.077000     17.557000      6.135000
H         -20.423000     18.430000      6.254000
H         -20.756000     16.784000      6.844000
H         -22.136000     17.803000      6.282000
O         -22.341000     15.126000      5.234000
C         -21.706000     15.854000      4.487000
C         -21.897000     15.602000      2.987000
H         -22.160000     14.537000      2.986000
H         -20.912000     15.618000      2.505000
C         -22.963000     16.427000      2.295000
H         -23.232000     15.940000      1.350000
H         -23.933000     16.460000      2.807000
C         -22.589000     17.875000      2.022000
H         -22.379000     18.376000      2.975000
H         -21.707000     17.977000      1.377000
C         -23.737000     18.682000      1.354000
C         -23.874000     18.371000     -0.069000
C         -23.242000     19.128000     -1.011000
H         -22.529000     19.862000     -0.649000
C         -23.306000     18.724000     -2.369000
H         -22.727000     19.227000     -3.137000
C         -24.080000     17.639000     -2.785000
H         -23.961000     17.114000     -3.728000
C         -24.791000     16.861000     -1.781000
H         -25.389000     16.008000     -2.087000
C         -24.723000     17.300000     -0.473000
H         -25.325000     16.757000      0.249000
C         -25.964000     23.678000      0.624000
C         -27.900000     22.165000      0.336000
C         -29.851000     23.315000      4.297000
C         -23.600000     22.879000      4.955000
C         -28.601000     20.523000      5.995000
C         -26.521000     22.440000      0.192000
C         -25.476000     22.000000      6.907000
C         -28.728000     24.641000      2.643000
C         -27.301000     18.910000      2.587000
C         -23.760000     21.501000      5.275000
C         -24.998000     19.022000      2.138000
C         -26.730000     18.611000      3.811000
C         -25.251000     19.824000      5.838000
C         -26.835000     21.691000      7.148000
C         -26.739000     20.285000      0.724000
C         -28.787000     22.899000      6.337000
C         -24.014000     20.135000      1.816000
C         -23.400000     20.859000      2.953000
C         -29.307000     21.683000      5.817000
C         -25.992000     25.358000      4.659000
C         -28.156000     24.934000      5.071000
C         -28.012000     25.261000      3.725000
C         -28.185000     24.320000      1.431000
C         -23.304000     22.236000      2.645000
C         -26.390000     19.252000      1.606000
C         -28.691000     23.124000      0.979000
C         -24.678000     21.052000      6.288000
C         -28.008000     20.832000      0.693000
C         -27.380000     18.963000      5.027000
C         -24.076000     24.516000      3.466000
C         -29.656000     23.703000      2.991000
C         -25.294000     18.789000      3.625000
C         -26.039000     25.250000      2.266000
C         -26.632000     19.529000      6.035000
C         -28.638000     19.446000      2.512000
C         -26.608000     23.979000      6.588000
C         -25.392000     23.393000      6.550000
C         -29.244000     19.765000      3.734000
C         -23.418000     23.264000      3.611000
C         -23.720000     20.490000      4.286000
C         -24.736000     24.824000      4.645000
C         -24.508000     21.305000      0.966000
C         -29.730000     21.375000      2.276000
C         -24.606000     19.484000      4.617000
C         -28.686000     19.478000      5.008000
C         -24.784000     24.675000      2.320000
C         -30.029000     21.942000      4.666000
C         -26.801000     24.580000      1.257000
C         -29.045000     23.888000      5.354000
C         -28.959000     20.389000      1.599000
C         -29.925000     20.969000      3.581000
C         -25.808000     21.260000      0.382000
C         -23.971000     22.513000      1.449000
C         -26.929000     24.920000      5.626000
C         -29.628000     22.740000      1.981000
C         -27.398000     20.525000      6.619000
C         -24.457000     23.834000      5.579000
C         -27.531000     22.955000      6.957000
C         -24.707000     23.733000      1.264000
C         -26.684000     25.501000      3.513000
$end

--------------------------------------------------------------
 ----------------------------------------------------------------
             Standard Nuclear Orientation (Angstroms)
    I     Atom           X                Y                Z
 ----------------------------------------------------------------
    1      O      -7.2274606384     8.5209699643     1.2549675916
    2      C      -7.8149792627     9.4036143198     2.2598769446
    3      H      -8.2014486596    10.3301251112     1.8154771713
    4      H      -7.1083469126     9.6107628752     3.0732877866
    5      H      -8.7239850007     8.9717893869     2.6953281997
    6      O      -6.6238871974     7.0474348363     2.9310691183
    7      C      -6.6773288705     7.3673891753     1.7564886789
    8      C      -6.2819601675     6.4519578413     0.6567245854
    9      H      -5.4834943436     6.8713962795     0.0323355042
   10      H      -7.1250790607     6.2037985527     0.0011603250
   11      C      -5.6055401253     5.1396633347     1.2021914078
   12      H      -4.7783828750     5.3853928031     1.8796490902
   13      H      -6.2942176653     4.6163902381     1.8759150249
   14      C      -5.0722588432     4.1978572257     0.1890846379
   15      H      -5.9726208577     3.7862408227    -0.2840899384
   16      H      -4.3788917446     4.7276256061    -0.4759315497
   17      C      -4.1378461602     3.0485480394     0.8008732714
   18      C      -3.0040414659     3.6193612738     1.5934564953
   19      C      -3.1091832357     3.6710188090     2.9425961127
   20      H      -3.8808287903     3.1261442025     3.4779770996
   21      C      -2.0941205304     4.3466961577     3.6163986244
   22      H      -2.0470917545     4.3266825019     4.7009265161
   23      C      -0.9756013749     4.8830237901     2.9274511886
   24      H      -0.1362079466     5.3611549484     3.4226625253
   25      C      -0.9264998161     4.8235346581     1.5486440664
   26      H      -0.1230063676     5.3856945067     1.0806049837
   27      C      -1.9635574394     4.1684789687     0.8910579277
   28      H      -2.0269193741     4.1906506790    -0.1927145025
   29      C      -1.1841281701    -1.3869545374    -0.6874862034
   30      C      -1.8293019724    -1.7653573337     1.6672171938
   31      C      -4.9455562164    -5.0005013319     0.8827187567
   32      C      -5.3120803748    -0.3285500545    -3.3647819559
   33      C      -7.6517602173    -2.8643573904     1.1861424985
   34      C      -1.4944877943    -0.9342342189     0.6174801628
   35      C      -7.5264250144    -1.6999194187    -2.3002046295
   36      C      -2.8139118411    -4.5944219611    -0.1230972313
   37      C      -5.2452011495     0.0531825055     2.5766849860
   38      C      -6.1954663057     0.2576325544    -2.5248937217
   39      C      -4.6896997116     1.6613195563     1.0076383397
   40      C      -6.4169204488     0.3292467272     1.7908883016
   41      C      -7.5286030157     0.0603940417    -0.7520464408
   42      C      -7.9088571243    -2.5732595719    -1.2539682040
   43      C      -2.9479538223     0.1723777083     1.9572963994
   44      C      -6.7960465569    -4.4952340067    -0.3546006968
   45      C      -3.8217321161     1.9060074658    -0.1458251752
   46      C      -4.4235551881     1.5815117907    -1.4713626311
   47      C      -6.9546419856    -4.0580836127     0.9985341904
   48      C      -4.1318559747    -3.5181377636    -3.1899259821
   49      C      -4.7610271282    -5.0319237440    -1.5346723262
   50      C      -3.4502152165    -4.6563352720    -1.3822373174
   51      C      -1.7572822631    -3.6904912768     0.1249194071
   52      C      -3.5031506316     0.8710651144    -2.2943079345
   53      C      -4.2189098729     0.7737066377     2.0255623223
   54      C      -1.9832831838    -3.1581940221     1.3903241710
   55      C      -7.3684265224    -0.3452671503    -2.0762343007
   56      C      -2.7541699309    -1.1534295977     2.5003652630
   57      C      -7.4138614798    -0.6601588989     1.5737959528
   58      C      -3.3327610446    -1.2493707555    -3.3598599560
   59      C      -3.5359611095    -4.7704849194     0.9816686664
   60      C      -6.1655451262     1.2553442377     0.8367484544
   61      C      -2.0782261690    -2.8556413197    -2.1778844400
   62      C      -7.9344162280    -0.8068136758     0.2794686640
   63      C      -5.0633710050    -1.2849191067     3.1241079249
   64      C      -6.4895085058    -3.6563971990    -2.5724781130
   65      C      -6.6822298349    -2.3580132190    -3.1677852016
   66      C      -6.0442982533    -2.1837941364     2.8940244299
   67      C      -3.9556288528    -0.0303382849    -3.2276724779
   68      C      -5.7685714873     1.1493090867    -1.5344338407
   69      C      -4.2823529253    -2.2556386088    -3.7122989828
   70      C      -2.5410514627     1.1262535184    -0.2830762055
   71      C      -3.9722449167    -3.1904466801     2.8034671190
   72      C      -6.6596720663     1.0545208277    -0.4780319551
   73      C      -7.2314024698    -1.9618421796     2.1313830279
   74      C      -2.1795325642    -1.5377658918    -2.6791681628
   75      C      -5.8430365389    -4.4064984146     1.7608848031
   76      C      -1.4518118147    -2.7402342018    -0.9200170965
   77      C      -5.5241496050    -5.1107461890    -0.3725978417
   78      C      -3.8127651314    -1.8935194115     3.0866964570
   79      C      -5.4092422328    -3.4512943520     2.7349236621
   80      C      -2.0972525510     0.3416496576     0.8206942904
   81      C      -2.4057516986     0.5898318344    -1.5333056847
   82      C      -5.2142269402    -4.3016616743    -2.6282157593
   83      C      -3.0745894768    -3.9041569961     1.9745363040
   84      C      -8.1812434607    -2.1873875192     0.0781152929
   85      C      -5.5432837184    -1.6505369075    -3.6922125203
   86      C      -7.2649531253    -3.7887404821    -1.4286158409
   87      C      -1.7011278666    -0.6295237086    -1.7501681188
   88      C      -3.0165248612    -3.8038367878    -2.4361690088
   89      O       2.4162956776    -5.5301198275     1.7950646009
   90      C       1.2033199585    -5.3342297218     1.0981837135
   91      H       0.4664385941    -4.8049820394     1.7153617636
   92      H       0.7631551366    -6.2840726775     0.7706103795
   93      H       1.5320485446    -4.7408449777     0.2359551695
   94      O       3.4224773638    -6.9147279686     0.1512815526
   95      C       3.4277233413    -6.3562148580     1.2372159820
   96      C       4.7930049515    -6.2472366668     1.9257759858
   97      H       5.3096010202    -7.1183446095     1.5042377858
   98      H       4.6703503585    -6.5148246941     2.9822595391
   99      C       5.5759092671    -4.9747751279     1.6732933835
  100      H       6.6290292044    -5.1493975433     1.9242922077
  101      H       5.6498040385    -4.6735236889     0.6207155321
  102      C       5.0808173238    -3.7476860329     2.4217887547
  103      H       4.0460548477    -3.5397024131     2.1229251871
  104      H       5.1070737613    -3.8694877064     3.5121226264
  105      C       5.8926033829    -2.4652512174     2.0875114176
  106      C       7.1914684048    -2.4438647671     2.7604982487
  107      C       7.3409791116    -1.8231155757     3.9655517702
  108      H       6.4335578608    -1.4857084857     4.4563797739
  109      C       8.5855388701    -1.9252345559     4.6379495108
  110      H       8.7164767866    -1.5468943079     5.6468042668
  111      C       9.6924642543    -2.5497772398     4.0600051970
  112      H      10.5624880978    -2.9042928008     4.6044427314
  113      C       9.5415522618    -3.1711698939     2.7523669673
  114      H      10.3899703819    -3.6698393035     2.2937118535
  115      C       8.3216585481    -3.0297813003     2.1198500956
  116      H       8.2528346714    -3.4277547887     1.1121708924
  117      C       5.7875580694     3.0447974896     1.8033042233
  118      C       7.5326576559     2.4419164525     0.1566801349
  119      C       4.9882524904     3.5124987317    -3.4762632912
  120      C       1.4833418375     0.6632832062     0.9164162105
  121      C       4.0307204016     0.2015290255    -4.0775784358
  122      C       6.8529710237     2.2027543811     1.3727515085
  123      C       1.2101485488     0.2163799450    -1.8814336608
  124      C       5.2452141536     4.5945762931    -1.3506575293
  125      C       6.6349188800    -1.1458069338    -1.3740494277
  126      C       1.8086368231    -0.5883908715     0.3211186584
  127      C       5.7886664364    -1.8242345078     0.7095884556
  128      C       5.4936953666    -1.8492135278    -1.7152913593
  129      C       2.7203336624    -1.6583071733    -1.5163978668
  130      C       1.8158097049     0.3998500021    -3.1463274516
  131      C       7.3206797976     0.2276558038     0.4481937153
  132      C       3.0000497897     2.3731435488    -3.9406680585
  133      C       5.1457998348    -1.1212678033     1.8941851569
  134      C       3.6829243220    -0.8939509535     1.8466111714
  135      C       4.1080611015     1.5529726715    -4.2857574160
  136      C       2.0266831466     3.8663304287    -0.2667953988
  137      C       2.9444179266     4.2153869338    -2.2838076521
  138      C       3.8116796461     4.6989033886    -1.3073600356
  139      C       6.0397947828     4.3152712755    -0.2748023668
  140      C       3.3807611347     0.3785846506     2.3847185441
  141      C       6.8241361250    -1.0001390352    -0.0130851748
  142      C       7.0801379334     3.4959719654    -0.6451950901
  143      C       1.6363304062    -0.8345491708    -1.0860808976
  144      C       7.7865185471     1.2051962455    -0.4108405939
  145      C       4.7386427136    -1.5024279371    -2.8705814723
  146      C       2.3031665328     2.5964398307     1.7615546218
  147      C       5.7764649634     4.0253743111    -2.4713330760
  148      C       4.8532560605    -2.1904967143    -0.4496929704
  149      C       3.9692317444     4.2115836772     1.0924790914
  150      C       3.3665898426    -1.4460405181    -2.7695103185
  151      C       7.1734980309    -0.1450448889    -2.2622486326
  152      C       1.3176791199     2.4976491148    -2.1710440042
  153      C       0.9467572278     1.5166873396    -1.3203813534
  154      C       6.4034774326     0.1541937801    -3.3935335203
  155      C       2.3090289920     1.1850490180     1.9331197860
  156      C       2.9295474090    -1.3476406868     0.7321432030
  157      C       1.5980571145     2.9134921609     0.6114226607
  158      C       5.6408230466     0.2797165767     2.2514396697
  159      C       7.2137010504     2.0609875472    -2.5800624275
  160      C       3.4775090030    -1.9914104869    -0.3595946484
  161      C       5.2251918572    -0.5423334053    -3.7720860040
  162      C       3.5024494993     3.2096884824     1.9212651640
  163      C       5.2823072143     2.2633773935    -4.1136028410
  164      C       5.3865627765     4.0659267321     0.9598827123
  165      C       3.5460025476     3.5448686345    -3.3575986718
  166      C       7.7127167924     0.9958764772    -1.7791331560
  167      C       6.4327557548     1.5319035082    -3.5880706244
  168      C       6.7698826854     0.8283522675     1.5751969538
  169      C       4.5562078061     1.0928408955     2.6300695974
  170      C       1.8961139311     3.6454730009    -1.6593023742
  171      C       6.9026270206     3.3180431061    -2.0474290922
  172      C       2.9345212776    -0.3571373185    -3.5093985377
  173      C       1.0803949334     1.7417350805     0.0735488737
  174      C       1.8608835205     1.8445497906    -3.3178030250
  175      C       4.6325361694     2.5113592992     2.4148940430
  176      C       3.2236776700     4.4590362685    -0.0978785596
 ----------------------------------------------------------------
 Molecular Point Group                 C1    NOp =  1
 Largest Abelian Subgroup              C1    NOp =  1
 Nuclear Repulsion Energy = 35246.1448517901 hartrees
 There are      462 alpha and      462 beta electrons
 Requested basis set is 6-31G(d,p)
 There are 676 shells and 2360 basis functions

 Total QAlloc Memory Limit  20000 MB
 Mega-Array Size      4888 MB
 MEM_STATIC part      5000 MB
 A cutoff of  1.0D-08 yielded  38462 shell pairs
 There are    539713 function pairs
 
 -------------------------------------------------------
 OpenMP Integral Computing Module                       
 Release: version 1.0, May 2013, Q-Chem Inc. Pittsburgh 
 -------------------------------------------------------
 Integral Job Info:
 Integral job number is                      11
 Integral operator is                         1
 short-range coefficients                     0
 long-range coefficients              100000000
 Omega coefficients                           0
 if combine SR and LR in K                    0
 Integral screening is                        0
 Integral computing path is                   2
 max size of driver memory is            800000
 size of driver memory is                593474
 size of scratch memory is              2260544
 max col of scratch BK array               1296
 max len of scratch array in speh3          155
 max len of scratch index in speh4           18
 max int batch size is                      520
 min int batch size is                       52
 fixed nKL is                                52
 max L of basis functions is                  2
 order of int derivative is                   0
 number of shells is                        676
 number of basis is                        2360
 number of cartesian basis is              2360
 number of contracted shell pairs         38462
 number of primitive shell pairs         115887
 maxK2 (contraction) of shell pair           36
 max number of K2 of shell pair               1
 max number of CS2 of shell pair           7372
 max number of PS2 of shell pair          35040
 mem total for path MDJ                 1539608
 -------------------------------------------------------
 Smallest overlap matrix eigenvalue = 2.44E-04

 Scale SEOQF with 1.000000e-02/1.000000e-02/1.000000e-02

 Standard Electronic Orientation quadrupole field applied
 Nucleus-field energy     =     0.0000001145 hartrees
 Guess from superposition of atomic densities
 Warning:  Energy on first SCF cycle will be non-variational
 A restricted hybrid HF-DFT SCF calculation will be
 performed using Pulay DIIS extrapolation
 Exchange:     0.2000 Hartree-Fock + 0.0800 Slater + 0.7200 B88
 Correlation:  0.1900 VWN1RPA + 0.8100 LYP
 Using SG-1 standard quadrature grid
 SCF converges when DIIS error is below 1.0E-05
 using 16 threads for integral computing 
 -------------------------------------------------------
 OpenMP BLAS3 based DFT computing Module                
 Release: version 1.0, May 2013, Q-Chem Inc. Pittsburgh 
 -------------------------------------------------------
 ---------------------------------------
  Cycle       Energy         DIIS Error
 ---------------------------------------
    1   -5859.5288455280      1.85E-02
    2   -5803.0242346925      1.31E-03
    3   -5802.2743772816      1.79E-03
    4   -5803.9376887147      6.21E-04
    5   -5804.1402692464      2.85E-04
    6   -5804.1912301639      1.27E-04
    7   -5804.2020798624      4.87E-05
    8   -5804.2031591564      3.11E-05
    9   -5804.2038402261      9.80E-06 Convergence criterion met
 ---------------------------------------
 SCF time:  CPU 8462.06 s  wall 868.65 s
 SCF   energy in the final basis set = -5804.2038402261
 Total energy in the final basis set = -5804.2038402261
 
 --------------------------------------------------------------
 
                    Orbital Energies (a.u.)
 --------------------------------------------------------------
 
 Alpha MOs
 -- Occupied --
-19.198 -19.189 -19.142 -19.141 -10.320 -10.320 -10.246 -10.243
-10.239 -10.239 -10.237 -10.234 -10.233 -10.233 -10.232 -10.230
-10.228 -10.225 -10.225 -10.223 -10.223 -10.223 -10.222 -10.221
-10.221 -10.220 -10.220 -10.220 -10.220 -10.220 -10.220 -10.219
-10.219 -10.219 -10.219 -10.218 -10.218 -10.218 -10.218 -10.217
-10.217 -10.217 -10.217 -10.216 -10.216 -10.216 -10.216 -10.216
-10.216 -10.216 -10.216 -10.216 -10.216 -10.216 -10.216 -10.215
-10.215 -10.215 -10.215 -10.215 -10.215 -10.215 -10.215 -10.215
-10.215 -10.215 -10.214 -10.214 -10.214 -10.214 -10.214 -10.214
-10.214 -10.213 -10.213 -10.213 -10.213 -10.213 -10.213 -10.213
-10.213 -10.212 -10.212 -10.212 -10.212 -10.212 -10.212 -10.212
-10.212 -10.212 -10.212 -10.211 -10.211 -10.211 -10.211 -10.211
-10.210 -10.210 -10.210 -10.210 -10.210 -10.210 -10.210 -10.210
-10.210 -10.210 -10.210 -10.209 -10.209 -10.209 -10.209 -10.209
-10.208 -10.208 -10.208 -10.208 -10.208 -10.208 -10.207 -10.207
-10.206 -10.206 -10.206 -10.206 -10.206 -10.206 -10.205 -10.204
-10.204 -10.203 -10.203 -10.203 -10.203 -10.203 -10.202 -10.202
-10.201 -10.201 -10.200 -10.199 -10.199 -10.199 -10.198 -10.196
-10.195 -10.195 -10.194 -10.184  -1.093  -1.080  -1.015  -1.014
 -0.987  -0.986  -0.969  -0.969  -0.966  -0.965  -0.964  -0.961
 -0.939  -0.934  -0.931  -0.931  -0.928  -0.926  -0.925  -0.924
 -0.924  -0.921  -0.900  -0.897  -0.893  -0.892  -0.890  -0.886
 -0.881  -0.876  -0.862  -0.853  -0.844  -0.844  -0.840  -0.838
 -0.837  -0.836  -0.827  -0.824  -0.808  -0.807  -0.801  -0.801
 -0.797  -0.796  -0.796  -0.794  -0.792  -0.790  -0.788  -0.787
 -0.772  -0.771  -0.770  -0.768  -0.768  -0.767  -0.766  -0.764
 -0.756  -0.752  -0.746  -0.739  -0.736  -0.731  -0.718  -0.718
 -0.717  -0.715  -0.715  -0.714  -0.713  -0.710  -0.709  -0.709
 -0.708  -0.707  -0.704  -0.704  -0.702  -0.701  -0.674  -0.673
 -0.660  -0.660  -0.659  -0.658  -0.650  -0.649  -0.634  -0.632
 -0.631  -0.627  -0.624  -0.624  -0.623  -0.622  -0.619  -0.618
 -0.616  -0.615  -0.614  -0.613  -0.612  -0.612  -0.609  -0.608
 -0.607  -0.605  -0.604  -0.603  -0.567  -0.565  -0.564  -0.562
 -0.561  -0.561  -0.560  -0.559  -0.558  -0.557  -0.554  -0.552
 -0.539  -0.538  -0.536  -0.532  -0.529  -0.527  -0.525  -0.524
 -0.523  -0.523  -0.520  -0.520  -0.518  -0.516  -0.515  -0.514
 -0.509  -0.505  -0.502  -0.499  -0.496  -0.492  -0.489  -0.487
 -0.485  -0.485  -0.482  -0.481  -0.480  -0.479  -0.477  -0.476
 -0.475  -0.474  -0.473  -0.471  -0.471  -0.470  -0.469  -0.468
 -0.466  -0.465  -0.465  -0.462  -0.462  -0.461  -0.460  -0.460
 -0.459  -0.455  -0.454  -0.452  -0.450  -0.447  -0.446  -0.443
 -0.442  -0.442  -0.440  -0.440  -0.438  -0.437  -0.434  -0.434
 -0.433  -0.431  -0.430  -0.429  -0.428  -0.427  -0.427  -0.425
 -0.425  -0.424  -0.423  -0.422  -0.422  -0.421  -0.420  -0.419
 -0.419  -0.418  -0.417  -0.417  -0.416  -0.415  -0.414  -0.413
 -0.412  -0.411  -0.410  -0.409  -0.404  -0.403  -0.401  -0.400
 -0.395  -0.392  -0.391  -0.390  -0.389  -0.387  -0.385  -0.382
 -0.377  -0.375  -0.374  -0.372  -0.371  -0.368  -0.368  -0.367
 -0.365  -0.365  -0.364  -0.363  -0.362  -0.361  -0.360  -0.359
 -0.358  -0.358  -0.357  -0.356  -0.355  -0.355  -0.353  -0.352
 -0.351  -0.349  -0.348  -0.348  -0.346  -0.345  -0.344  -0.344
 -0.342  -0.340  -0.339  -0.337  -0.337  -0.336  -0.335  -0.333
 -0.333  -0.331  -0.330  -0.328  -0.327  -0.326  -0.324  -0.322
 -0.312  -0.307  -0.304  -0.294  -0.293  -0.288  -0.276  -0.275
 -0.273  -0.272  -0.269  -0.268  -0.268  -0.267  -0.266  -0.263
 -0.263  -0.260  -0.259  -0.259  -0.258  -0.256  -0.255  -0.252
 -0.250  -0.249  -0.248  -0.247  -0.223  -0.221  -0.214  -0.211
 -0.209  -0.207  -0.205  -0.204  -0.202  -0.195
 -- Virtual --
 -0.125  -0.123  -0.120  -0.117  -0.110  -0.108  -0.080  -0.074
 -0.074  -0.070  -0.063  -0.059  -0.056  -0.049  -0.023  -0.022
 -0.021  -0.019  -0.019  -0.017  -0.016  -0.015  -0.015  -0.012
 -0.011  -0.010  -0.008  -0.006  -0.005  -0.003  -0.002   0.003
  0.007   0.009   0.031   0.036   0.041   0.044   0.048   0.050
  0.051   0.053   0.055   0.059   0.061   0.064   0.067   0.069
  0.070   0.074   0.079   0.083   0.086   0.088   0.088   0.093
  0.095   0.097   0.099   0.102   0.104   0.105   0.106   0.110
  0.110   0.111   0.113   0.115   0.116   0.119   0.121   0.123
  0.124   0.126   0.128   0.131   0.132   0.133   0.136   0.139
  0.140   0.141   0.146   0.148   0.153   0.154   0.157   0.157
  0.160   0.161   0.163   0.165   0.165   0.168   0.169   0.171
  0.172   0.174   0.175   0.177   0.178   0.180   0.182   0.184
  0.185   0.186   0.187   0.188   0.189   0.190   0.193   0.194
  0.195   0.197   0.198   0.199   0.200   0.201   0.205   0.206
  0.209   0.210   0.212   0.214   0.216   0.217   0.220   0.221
  0.222   0.223   0.224   0.225   0.227   0.227   0.229   0.230
  0.232   0.235   0.236   0.237   0.238   0.238   0.239   0.243
  0.244   0.244   0.246   0.248   0.250   0.254   0.256   0.260
  0.263   0.265   0.265   0.269   0.273   0.274   0.277   0.280
  0.282   0.285   0.287   0.290   0.291   0.292   0.295   0.302
  0.309   0.310   0.313   0.314   0.315   0.317   0.318   0.321
  0.322   0.322   0.324   0.327   0.332   0.333   0.333   0.337
  0.339   0.342   0.342   0.343   0.344   0.346   0.349   0.350
  0.353   0.356   0.358   0.368   0.374   0.379   0.380   0.392
  0.396   0.397   0.400   0.402   0.403   0.406   0.406   0.410
  0.411   0.413   0.416   0.418   0.419   0.420   0.422   0.424
  0.428   0.429   0.434   0.436   0.440   0.442   0.445   0.447
  0.449   0.451   0.454   0.456   0.458   0.460   0.460   0.462
  0.464   0.464   0.468   0.468   0.469   0.472   0.474   0.474
  0.475   0.476   0.477   0.479   0.480   0.481   0.482   0.484
  0.484   0.485   0.487   0.489   0.490   0.490   0.492   0.492
  0.494   0.495   0.498   0.499   0.500   0.500   0.501   0.501
  0.503   0.504   0.505   0.506   0.508   0.510   0.510   0.511
  0.512   0.512   0.514   0.514   0.515   0.516   0.517   0.518
  0.519   0.521   0.522   0.522   0.524   0.524   0.526   0.527
  0.527   0.528   0.529   0.530   0.530   0.532   0.532   0.533
  0.534   0.535   0.535   0.536   0.536   0.537   0.539   0.539
  0.541   0.541   0.542   0.543   0.544   0.544   0.546   0.547
  0.548   0.549   0.549   0.550   0.550   0.551   0.552   0.552
  0.553   0.553   0.554   0.556   0.557   0.558   0.558   0.559
  0.559   0.560   0.561   0.562   0.563   0.563   0.564   0.565
  0.567   0.568   0.568   0.569   0.570   0.571   0.572   0.573
  0.573   0.574   0.575   0.575   0.576   0.578   0.579   0.581
  0.581   0.582   0.582   0.584   0.585   0.585   0.586   0.587
  0.588   0.589   0.590   0.591   0.592   0.593   0.594   0.595
  0.595   0.597   0.597   0.598   0.599   0.600   0.601   0.603
  0.603   0.604   0.604   0.605   0.606   0.607   0.608   0.609
  0.610   0.613   0.614   0.615   0.616   0.617   0.618   0.619
  0.620   0.620   0.623   0.624   0.625   0.627   0.627   0.628
  0.628   0.630   0.630   0.631   0.633   0.634   0.634   0.635
  0.635   0.636   0.638   0.638   0.640   0.641   0.642   0.643
  0.643   0.645   0.646   0.647   0.648   0.649   0.650   0.651
  0.652   0.653   0.654   0.656   0.656   0.657   0.657   0.659
  0.660   0.661   0.662   0.663   0.663   0.664   0.665   0.666
  0.666   0.668   0.669   0.669   0.671   0.672   0.673   0.673
  0.674   0.675   0.676   0.677   0.677   0.678   0.679   0.681
  0.684   0.685   0.686   0.686   0.687   0.689   0.691   0.691
  0.692   0.693   0.695   0.695   0.696   0.697   0.697   0.699
  0.700   0.701   0.702   0.704   0.706   0.707   0.708   0.709
  0.709   0.711   0.711   0.713   0.715   0.716   0.718   0.719
  0.720   0.721   0.722   0.722   0.723   0.726   0.728   0.728
  0.730   0.731   0.733   0.734   0.735   0.736   0.738   0.739
  0.741   0.743   0.744   0.745   0.745   0.746   0.748   0.748
  0.750   0.752   0.753   0.755   0.755   0.757   0.758   0.760
  0.761   0.762   0.764   0.765   0.767   0.768   0.769   0.770
  0.771   0.774   0.774   0.776   0.778   0.779   0.780   0.780
  0.781   0.782   0.784   0.785   0.786   0.787   0.789   0.789
  0.792   0.792   0.793   0.794   0.796   0.797   0.798   0.799
  0.800   0.801   0.802   0.802   0.804   0.805   0.806   0.807
  0.807   0.809   0.810   0.811   0.811   0.813   0.814   0.815
  0.815   0.815   0.817   0.817   0.818   0.820   0.821   0.822
  0.822   0.823   0.824   0.824   0.825   0.826   0.827   0.828
  0.829   0.829   0.831   0.833   0.835   0.836   0.839   0.841
  0.843   0.845   0.845   0.848   0.849   0.852   0.853   0.854
  0.856   0.858   0.861   0.863   0.865   0.867   0.869   0.871
  0.873   0.876   0.881   0.884   0.886   0.887   0.889   0.891
  0.893   0.897   0.899   0.900   0.902   0.905   0.907   0.910
  0.912   0.913   0.916   0.917   0.919   0.921   0.925   0.928
  0.931   0.931   0.932   0.935   0.935   0.938   0.938   0.940
  0.941   0.942   0.944   0.944   0.947   0.948   0.952   0.953
  0.954   0.955   0.957   0.959   0.967   0.969   0.972   0.974
  0.976   0.978   0.982   0.983   0.987   0.988   0.988   0.993
  0.995   0.998   1.002   1.004   1.006   1.007   1.009   1.011
  1.012   1.013   1.015   1.016   1.018   1.019   1.020   1.022
  1.023   1.024   1.026   1.028   1.031   1.032   1.033   1.034
  1.037   1.037   1.039   1.041   1.041   1.042   1.044   1.046
  1.047   1.049   1.051   1.051   1.056   1.056   1.058   1.059
  1.061   1.062   1.064   1.065   1.068   1.068   1.070   1.071
  1.075   1.076   1.078   1.079   1.081   1.083   1.085   1.085
  1.088   1.092   1.093   1.094   1.096   1.098   1.100   1.102
  1.103   1.104   1.105   1.105   1.109   1.110   1.113   1.114
  1.117   1.120   1.121   1.126   1.127   1.129   1.131   1.133
  1.133   1.136   1.139   1.143   1.144   1.146   1.150   1.151
  1.153   1.153   1.156   1.158   1.159   1.160   1.164   1.166
  1.167   1.170   1.170   1.173   1.175   1.176   1.178   1.180
  1.181   1.182   1.185   1.186   1.188   1.189   1.190   1.191
  1.193   1.195   1.199   1.200   1.200   1.204   1.206   1.207
  1.210   1.211   1.212   1.213   1.218   1.219   1.221   1.224
  1.229   1.233   1.234   1.239   1.240   1.242   1.245   1.249
  1.252   1.253   1.257   1.259   1.260   1.261   1.263   1.266
  1.266   1.270   1.271   1.272   1.275   1.276   1.280   1.283
  1.284   1.285   1.287   1.289   1.291   1.293   1.296   1.299
  1.301   1.303   1.304   1.308   1.312   1.314   1.316   1.317
  1.319   1.321   1.323   1.326   1.330   1.331   1.336   1.337
  1.340   1.341   1.343   1.345   1.349   1.350   1.352   1.355
  1.357   1.360   1.361   1.363   1.368   1.369   1.373   1.373
  1.374   1.376   1.379   1.381   1.385   1.387   1.391   1.393
  1.398   1.398   1.401   1.401   1.403   1.405   1.406   1.408
  1.409   1.414   1.416   1.419   1.421   1.424   1.426   1.429
  1.436   1.437   1.439   1.443   1.445   1.447   1.449   1.450
  1.454   1.458   1.459   1.460   1.461   1.464   1.466   1.470
  1.471   1.472   1.474   1.477   1.480   1.480   1.482   1.484
  1.487   1.489   1.492   1.495   1.496   1.496   1.500   1.501
  1.503   1.505   1.506   1.513   1.514   1.517   1.524   1.527
  1.529   1.533   1.535   1.536   1.538   1.540   1.540   1.543
  1.550   1.552   1.554   1.557   1.557   1.560   1.563   1.566
  1.567   1.568   1.569   1.573   1.575   1.577   1.578   1.578
  1.580   1.584   1.589   1.590   1.592   1.595   1.597   1.598
  1.601   1.604   1.608   1.615   1.617   1.621   1.623   1.630
  1.632   1.635   1.636   1.637   1.641   1.644   1.647   1.649
  1.653   1.657   1.660   1.662   1.664   1.666   1.669   1.673
  1.676   1.681   1.683   1.686   1.689   1.690   1.698   1.701
  1.703   1.703   1.704   1.706   1.709   1.711   1.714   1.716
  1.718   1.724   1.724   1.727   1.729   1.731   1.735   1.737
  1.739   1.741   1.744   1.746   1.746   1.747   1.748   1.750
  1.753   1.754   1.755   1.758   1.759   1.761   1.762   1.764
  1.766   1.767   1.768   1.769   1.770   1.771   1.773   1.774
  1.777   1.777   1.778   1.780   1.781   1.782   1.783   1.783
  1.784   1.786   1.787   1.790   1.791   1.792   1.795   1.796
  1.797   1.799   1.799   1.800   1.802   1.803   1.803   1.806
  1.806   1.807   1.808   1.809   1.810   1.812   1.813   1.815
  1.816   1.817   1.820   1.822   1.824   1.826   1.828   1.830
  1.831   1.834   1.835   1.837   1.839   1.842   1.843   1.845
  1.848   1.849   1.850   1.852   1.854   1.856   1.858   1.859
  1.861   1.863   1.867   1.868   1.870   1.871   1.873   1.874
  1.875   1.878   1.879   1.880   1.884   1.887   1.889   1.892
  1.893   1.895   1.896   1.900   1.902   1.903   1.903   1.905
  1.910   1.912   1.915   1.915   1.919   1.921   1.924   1.925
  1.927   1.929   1.931   1.932   1.934   1.935   1.937   1.939
  1.941   1.943   1.945   1.950   1.953   1.954   1.955   1.956
  1.960   1.962   1.963   1.966   1.968   1.969   1.970   1.973
  1.978   1.981   1.981   1.982   1.985   1.988   1.989   1.991
  1.993   1.995   1.996   1.999   2.001   2.002   2.003   2.004
  2.005   2.007   2.008   2.009   2.011   2.012   2.013   2.014
  2.016   2.017   2.019   2.019   2.021   2.021   2.023   2.024
  2.025   2.026   2.027   2.027   2.029   2.030   2.031   2.031
  2.034   2.035   2.036   2.037   2.038   2.040   2.040   2.042
  2.043   2.045   2.046   2.048   2.048   2.050   2.051   2.052
  2.054   2.056   2.057   2.059   2.060   2.061   2.062   2.064
  2.065   2.066   2.066   2.068   2.069   2.069   2.071   2.072
  2.073   2.075   2.076   2.077   2.077   2.081   2.083   2.085
  2.087   2.088   2.090   2.091   2.092   2.094   2.095   2.097
  2.100   2.100   2.104   2.105   2.106   2.108   2.112   2.113
  2.114   2.115   2.117   2.119   2.122   2.126   2.129   2.129
  2.131   2.137   2.138   2.141   2.144   2.148   2.149   2.151
  2.152   2.153   2.155   2.159   2.161   2.163   2.168   2.170
  2.173   2.180   2.189   2.192   2.195   2.200   2.205   2.206
  2.208   2.212   2.215   2.216   2.220   2.225   2.227   2.229
  2.232   2.234   2.235   2.238   2.241   2.246   2.248   2.250
  2.253   2.254   2.255   2.257   2.262   2.265   2.266   2.269
  2.270   2.271   2.272   2.276   2.279   2.281   2.286   2.290
  2.290   2.292   2.294   2.296   2.297   2.302   2.303   2.306
  2.308   2.308   2.312   2.314   2.316   2.318   2.320   2.321
  2.323   2.328   2.329   2.331   2.335   2.338   2.340   2.342
  2.345   2.346   2.349   2.352   2.353   2.357   2.361   2.363
  2.364   2.366   2.367   2.370   2.370   2.371   2.374   2.374
  2.375   2.378   2.380   2.381   2.382   2.384   2.385   2.388
  2.390   2.391   2.392   2.396   2.398   2.401   2.401   2.402
  2.405   2.408   2.408   2.410   2.411   2.413   2.415   2.416
  2.416   2.419   2.421   2.422   2.424   2.428   2.431   2.431
  2.432   2.434   2.437   2.438   2.440   2.443   2.445   2.447
  2.449   2.451   2.454   2.455   2.459   2.461   2.463   2.465
  2.467   2.469   2.469   2.472   2.475   2.477   2.478   2.484
  2.485   2.486   2.490   2.492   2.493   2.494   2.496   2.497
  2.498   2.502   2.504   2.505   2.508   2.510   2.511   2.513
  2.515   2.520   2.522   2.524   2.527   2.528   2.529   2.531
  2.533   2.534   2.536   2.539   2.540   2.542   2.545   2.546
  2.548   2.551   2.555   2.557   2.558   2.561   2.563   2.573
  2.577   2.579   2.582   2.584   2.587   2.590   2.592   2.595
  2.596   2.597   2.601   2.602   2.604   2.607   2.607   2.610
  2.612   2.613   2.614   2.616   2.619   2.621   2.622   2.626
  2.626   2.629   2.630   2.631   2.633   2.636   2.638   2.640
  2.640   2.643   2.645   2.646   2.647   2.650   2.652   2.653
  2.655   2.658   2.659   2.661   2.663   2.664   2.664   2.667
  2.667   2.669   2.670   2.671   2.675   2.677   2.679   2.679
  2.681   2.682   2.686   2.687   2.689   2.689   2.695   2.696
  2.700   2.700   2.701   2.702   2.704   2.707   2.710   2.712
  2.714   2.717   2.718   2.719   2.725   2.725   2.728   2.731
  2.734   2.736   2.739   2.742   2.744   2.745   2.747   2.751
  2.754   2.755   2.756   2.759   2.761   2.764   2.768   2.769
  2.771   2.773   2.776   2.778   2.782   2.783   2.785   2.787
  2.790   2.791   2.792   2.798   2.798   2.799   2.803   2.804
  2.806   2.809   2.811   2.813   2.816   2.818   2.820   2.824
  2.827   2.829   2.831   2.832   2.837   2.841   2.844   2.849
  2.850   2.852   2.857   2.858   2.860   2.864   2.865   2.868
  2.873   2.873   2.876   2.877   2.878   2.882   2.886   2.887
  2.889   2.891   2.892   2.893   2.897   2.899   2.900   2.901
  2.903   2.905   2.905   2.908   2.911   2.912   2.914   2.915
  2.917   2.918   2.921   2.923   2.923   2.924   2.928   2.929
  2.930   2.931   2.933   2.936   2.938   2.939   2.941   2.942
  2.944   2.947   2.948   2.951   2.953   2.957   2.959   2.962
  2.964   2.965   2.968   2.969   2.973   2.977   2.984   2.985
  2.991   2.992   2.997   3.000   3.001   3.004   3.007   3.012
  3.013   3.015   3.020   3.022   3.025   3.027   3.029   3.031
  3.033   3.036   3.037   3.040   3.041   3.045   3.045   3.049
  3.050   3.055   3.057   3.058   3.060   3.065   3.070   3.072
  3.076   3.078   3.080   3.084   3.088   3.096   3.100   3.111
  3.112   3.118   3.126   3.128   3.135   3.136   3.147   3.155
  3.160   3.164   3.169   3.173   3.185   3.189   3.191   3.198
  3.202   3.204   3.210   3.213   3.221   3.241   3.242   3.244
  3.254   3.256   3.261   3.266   3.267   3.274   3.280   3.293
  3.299   3.301   3.309   3.316   3.318   3.322   3.325   3.327
  3.332   3.336   3.348   3.358   3.359   3.362   3.363   3.392
  3.402   3.403   3.427   3.428   3.436   3.436   3.441   3.442
  3.452   3.461   3.464   3.472   3.475   3.489   3.491   3.501
  3.506   3.508   3.513   3.518   3.532   3.541   3.546   3.560
  3.561   3.570   3.571   3.572   3.586   3.591   3.594   3.606
  3.609   3.619   3.698   3.704   3.835   3.909   4.013   4.017
  4.072   4.075   4.082   4.091   4.094   4.098   4.100   4.104
  4.107   4.114   4.118   4.122   4.124   4.127   4.128   4.130
  4.132   4.138   4.141   4.148   4.150   4.153   4.155   4.159
  4.164   4.169   4.169   4.174   4.179   4.181   4.183   4.191
  4.198   4.200   4.210   4.212   4.216   4.225   4.231   4.242
  4.246   4.250   4.257   4.259   4.260   4.261   4.267   4.269
  4.272   4.275   4.280   4.281   4.290   4.294   4.295   4.298
  4.306   4.312   4.321   4.336   4.377   4.391   4.392   4.396
  4.402   4.404   4.407   4.412   4.414   4.417   4.417   4.423
  4.424   4.426   4.427   4.433   4.452   4.465   4.475   4.479
  4.481   4.492   4.494   4.514   4.534   4.544   4.554   4.561
  4.563   4.572   4.609   4.625   4.632   4.635   4.642   4.644
  4.648   4.661   4.676   4.682   4.691   4.699   4.706   4.706
  4.710   4.715   4.717   4.725   4.748   4.768   4.808   4.832
  4.845   4.867   4.871   4.880   4.885   4.887   4.893   4.901
  4.908   4.923   4.957   4.969   4.976   4.984   4.987   4.992
  4.997   5.012   5.013   5.023   5.162   5.177   5.184   5.195
  5.202   5.213   5.220   5.229   5.300   5.319   5.325   5.347
  5.363   5.369
 --------------------------------------------------------------
 
          Ground-State Mulliken Net Atomic Charges

     Atom                 Charge (a.u.)
  ----------------------------------------
      1 O                    -0.476698
      2 C                    -0.091849
      3 H                     0.122562
      4 H                     0.137071
      5 H                     0.125921
      6 O                    -0.467996
      7 C                     0.630101
      8 C                    -0.276938
      9 H                     0.132715
     10 H                     0.136605
     11 C                    -0.186970
     12 H                     0.121627
     13 H                     0.109945
     14 C                    -0.162184
     15 H                     0.105800
     16 H                     0.098585
     17 C                    -0.019484
     18 C                     0.101872
     19 C                    -0.095211
     20 H                     0.101925
     21 C                    -0.101262
     22 H                     0.089033
     23 C                    -0.080916
     24 H                     0.090148
     25 C                    -0.089582
     26 H                     0.096548
     27 C                    -0.105781
     28 H                     0.089295
     29 C                    -0.019495
     30 C                     0.015871
     31 C                     0.020408
     32 C                    -0.006096
     33 C                     0.035646
     34 C                     0.011951
     35 C                     0.026639
     36 C                     0.027785
     37 C                    -0.011708
     38 C                     0.018732
     39 C                    -0.090002
     40 C                     0.018977
     41 C                     0.025400
     42 C                     0.009306
     43 C                    -0.013725
     44 C                     0.006181
     45 C                    -0.079585
     46 C                     0.007404
     47 C                    -0.009948
     48 C                     0.004216
     49 C                    -0.008669
     50 C                     0.002470
     51 C                    -0.040187
     52 C                    -0.015875
     53 C                     0.048068
     54 C                    -0.020542
     55 C                    -0.053064
     56 C                    -0.011717
     57 C                    -0.034723
     58 C                     0.007179
     59 C                    -0.000893
     60 C                     0.012204
     61 C                     0.011208
     62 C                     0.006486
     63 C                    -0.010385
     64 C                    -0.021204
     65 C                    -0.008259
     66 C                     0.028679
     67 C                     0.005059
     68 C                     0.032589
     69 C                    -0.000253
     70 C                     0.028327
     71 C                     0.011153
     72 C                    -0.018439
     73 C                    -0.009304
     74 C                    -0.021529
     75 C                    -0.007274
     76 C                    -0.006602
     77 C                    -0.007325
     78 C                     0.016190
     79 C                    -0.046995
     80 C                    -0.013357
     81 C                     0.059238
     82 C                    -0.011278
     83 C                    -0.014290
     84 C                    -0.035626
     85 C                    -0.011869
     86 C                     0.019044
     87 C                     0.005262
     88 C                     0.009959
     89 O                    -0.476013
     90 C                    -0.083325
     91 H                     0.125645
     92 H                     0.125813
     93 H                     0.123938
     94 O                    -0.442961
     95 C                     0.574892
     96 C                    -0.240396
     97 H                     0.134763
     98 H                     0.113528
     99 C                    -0.189060
    100 H                     0.112828
    101 H                     0.115228
    102 C                    -0.166011
    103 H                     0.122236
    104 H                     0.108665
    105 C                    -0.007613
    106 C                     0.104345
    107 C                    -0.103677
    108 H                     0.095151
    109 C                    -0.099531
    110 H                     0.091462
    111 C                    -0.090477
    112 H                     0.094784
    113 C                    -0.100014
    114 H                     0.095510
    115 C                    -0.097881
    116 H                     0.088422
    117 C                     0.008491
    118 C                    -0.000322
    119 C                     0.006148
    120 C                    -0.015566
    121 C                     0.016635
    122 C                    -0.021740
    123 C                     0.002432
    124 C                     0.012198
    125 C                    -0.003551
    126 C                    -0.002598
    127 C                    -0.084347
    128 C                     0.012868
    129 C                    -0.032575
    130 C                    -0.023054
    131 C                     0.014224
    132 C                    -0.011365
    133 C                    -0.105286
    134 C                     0.029258
    135 C                     0.012616
    136 C                    -0.010573
    137 C                    -0.016091
    138 C                    -0.006511
    139 C                     0.010778
    140 C                     0.000526
    141 C                     0.051721
    142 C                    -0.006606
    143 C                     0.008251
    144 C                     0.008656
    145 C                     0.004021
    146 C                    -0.008686
    147 C                     0.013289
    148 C                    -0.000755
    149 C                    -0.018688
    150 C                    -0.005082
    151 C                     0.007797
    152 C                     0.012521
    153 C                     0.022416
    154 C                     0.000699
    155 C                    -0.011691
    156 C                     0.005017
    157 C                     0.013771
    158 C                     0.031096
    159 C                     0.000928
    160 C                     0.008607
    161 C                    -0.045065
    162 C                     0.029480
    163 C                    -0.022136
    164 C                    -0.020096
    165 C                    -0.009853
    166 C                    -0.009676
    167 C                     0.004416
    168 C                     0.005117
    169 C                    -0.008270
    170 C                     0.010737
    171 C                    -0.016311
    172 C                     0.046671
    173 C                     0.006427
    174 C                    -0.038181
    175 C                    -0.010100
    176 C                     0.010418
  ----------------------------------------
  Sum of atomic charges =     0.000000

 -----------------------------------------------------------------
                    Cartesian Multipole Moments
 -----------------------------------------------------------------
    Charge (ESU x 10^10)
                 0.0000
    Dipole Moment (Debye)
         X       0.5552      Y       2.8842      Z       2.0627
       Tot       3.5891
    Quadrupole Moments (Debye-Ang)
        XX    -782.5525     XY     -29.9376     YY    -794.6135
        XZ      20.7904     YZ     -11.2048     ZZ    -806.0464
    Octopole Moments (Debye-Ang^2)
       XXX     105.4459    XXY      46.6427    XYY    -213.4740
       YYY     441.2780    XXZ     145.6664    XYZ     -73.3147
       YYZ     133.3558    XZZ      77.7188    YZZ     -12.2450
       ZZZ     147.8265
    Hexadecapole Moments (Debye-Ang^3)
      XXXX -124385.9413   XXXY   -4954.4740   XXYY  -27726.1392
      XYYY   -3709.5054   YYYY  -50097.7805   XXXZ    1087.0512
      XXYZ    -209.6456   XYYZ     -31.0651   YYYZ     364.5156
      XXZZ  -24990.8537   XYZZ    -598.2027   YYZZ  -12607.8638
      XZZZ     543.3406   YZZZ      66.7379   ZZZZ  -23296.0872
 -----------------------------------------------------------------
Archival summary:
1\1\mn251\SP\ProcedureUnspecified\6-31G**\428\afmv_a\FriOct1205:53:162018FriOct1205:53:162018\0\\#,ProcedureUnspecified,6-31G**,\\0,1\C\C,1,1.38015\C,2,1.38707,1,110.667\C,1,1.4157,2,124.174,3,146.122,0\C,4,1.39896,1,114.873,2,-10.1734,0\C,4,1.40367,1,116.395,2,-139.285,0\C,6,1.38449,4,106.337,1,136.887,0\C,7,1.36984,6,119.093,4,-142.26,0\C,8,1.37531,7,121.341,6,-5.90846,0\C,9,1.3742,8,119.839,7,6.95291,0\C,10,1.36473,9,120.553,8,-2.69274,0\C,11,1.36716,10,110.456,9,145.914,0\C,9,1.3956,8,103.966,7,147.183,0\C,13,1.35255,9,118.763,8,-137.131,0\C,13,1.38142,9,112.982,8,5.3963,0\C,14,1.39306,13,124.219,9,147.101,0\C,16,1.3821,14,117.921,13,-12.2222,0\C,17,1.37784,16,120.009,14,12.7881,0\C,16,1.39416,14,106.064,13,-143.088,0\C,19,1.34849,16,109.48,14,-11.2763,0\C,20,1.38529,19,108.058,16,10.3699,0\C,15,1.39875,13,105.457,9,-2.62302,0\C,22,1.37456,15,119.378,13,-139.622,0\C,23,1.37613,22,119.181,15,138.908,0\C,24,1.35875,23,121.26,22,-1.3321,0\C,19,1.40739,16,123.365,14,137.671,0\C,26,1.40277,19,120.321,16,-144.444,0\C,21,1.41416,20,126.778,19,150.327,0\C,17,1.41548,16,121.054,14,-130.442,0\C,29,1.38655,17,108.802,16,144.507,0\C,30,1.3684,29,120.855,17,-142.047,0\C,30,1.38825,29,106.237,17,-0.225622,0\C,31,1.41312,30,121.554,29,136.773,0\C,33,1.38663,31,109.233,30,-142.709,0\C,34,1.38906,33,109.678,31,-4.09871,0\C,35,1.39221,34,106.064,33,4.39028,0\C,33,1.39247,31,118.636,30,2.45634,0\C,37,1.37205,33,116.51,31,-131.98,0\C,37,1.39087,33,120.484,31,-3.35766,0\C,36,1.39505,35,122.649,34,140.521,0\C,40,1.37285,36,120.14,35,-1.56936,0\C,40,1.40227,36,119.704,35,-143.468,0\C,38,1.41214,37,122.789,33,-11.7885,0\C,43,1.33149,38,119.319,37,7.15445,0\C,44,1.39613,43,109.196,38,142.039,0\C,43,1.41247,38,121.446,37,150.93,0\C,46,1.39128,43,106.441,38,-137.877,0\C,45,1.41502,44,121.328,43,-137.254,0\C,48,1.33704,45,122.525,44,135.354,0\C,49,1.39133,48,108.831,45,-142.491,0\C,50,1.35023,49,110.93,48,-1.28327,0\C,20,1.41885,19,121.135,16,151.458,0\C,52,1.35323,20,119.46,19,-9.4164,0\C,12,1.42509,11,117.48,10,-139.758,0\C,51,1.42659,50,106.683,49,-1.66872,0\C,54,1.42976,12,119.71,11,131.512,0\C,56,1.40769,54,121.68,12,0.613478,0\C,57,1.36973,56,118.118,54,-140.655,0\C,57,1.43027,56,121.855,54,4.51369,0\C,59,1.46414,57,117.987,56,-1.7206,0\C,59,1.50721,57,123.251,56,70.8136,0\C,61,1.49651,59,123.767,57,-2.83364,0\C,62,1.35422,61,118.905,59,56.7848,0\H,63,1.0858,62,121.821,61,-13.4138,0\C,62,1.37022,61,117.173,59,-128.797,0\H,65,1.08585,62,118.393,61,-1.90248,0\C,65,1.39176,62,120.813,61,-174.379,0\H,67,1.08659,65,126.227,62,172.525,0\C,67,1.38096,65,117.744,62,-0.864927,0\H,69,1.08555,67,116.548,65,-177.479,0\C,63,1.39316,62,116.345,61,173.003,0\H,71,1.08573,63,120.38,62,172.599,0\C,61,1.6026,59,119.93,57,151.199,0\H,73,1.09711,61,102.076,59,140.573,0\H,73,1.09726,61,111.964,59,15.8497,0\C,73,1.48249,61,113.857,59,-101.458,0\H,76,1.09636,73,110.041,61,66.0168,0\H,76,1.09705,73,107.043,61,-43.5955,0\C,76,1.57391,73,116.58,61,-167.944,0\H,79,1.09645,76,110.425,73,-58.9783,0\H,79,1.09697,76,101.727,73,55.2713,0\C,79,1.48452,76,111.831,73,175.335,0\O,82,1.21855,79,122.717,76,8.30269,0\O,82,1.37292,79,110.746,76,-178.176,0\C,84,1.46085,82,114.679,79,-171.961,0\H,85,1.09653,84,111.631,82,69.3628,0\H,85,1.09721,84,111.409,82,-51.8431,0\H,85,1.09785,84,111.902,82,-177.508,0\C,4,2.90155,1,106.191,2,112.053,0\C,89,1.38516,4,85.6554,1,104.535,0\C,90,1.41437,89,118.697,4,133.329,0\C,91,1.3987,90,120.294,89,8.07855,0\C,92,1.35521,91,122.187,90,133.834,0\C,93,1.36957,92,121.077,91,-2.04775,0\C,94,1.38317,93,122.4,92,-141.975,0\C,92,1.38558,91,122.42,90,-10.6093,0\C,96,1.37693,92,107.681,91,147.113,0\C,97,1.404,96,111.374,92,5.66234,0\C,98,1.42014,97,116.857,96,-138.526,0\C,99,1.39168,98,117.758,97,135.553,0\C,100,1.38054,99,106.812,98,-147.854,0\C,101,1.40023,100,119.744,99,145.796,0\C,102,1.3958,101,121.242,100,-3.08227,0\C,103,1.3646,102,106.026,101,-140.072,0\C,104,1.36632,103,109.572,102,-2.9384,0\C,105,1.37505,104,110.468,103,3.10403,0\C,103,1.3763,102,119.668,101,3.13449,0\C,106,1.39958,105,122.618,104,140.016,0\C,108,1.3842,106,119.82,105,-134.644,0\C,109,1.38222,108,108.376,106,139.168,0\C,109,1.38618,108,121.996,106,-5.39902,0\C,111,1.35124,109,120.11,108,139.997,0\C,110,1.39081,109,109.367,108,0.25057,0\C,113,1.39171,110,106.56,109,-2.42814,0\C,110,1.40243,109,122.281,108,-148.453,0\C,115,1.38175,110,117.694,109,8.87272,0\C,116,1.38334,115,114.176,110,141.033,0\C,105,1.41892,104,116.96,103,142.769,0\C,118,1.38379,105,121.778,104,-137.713,0\C,119,1.41162,118,107.807,105,144.515,0\C,120,1.41719,119,108.382,118,-0.768524,0\C,121,1.35641,120,121.552,119,-147.005,0\C,121,1.38151,120,107.271,119,3.93872,0\C,122,1.38582,121,116.369,120,138.875,0\C,124,1.36488,122,122.272,121,4.99662,0\C,125,1.34634,124,120.385,122,-5.64861,0\C,126,1.36606,125,110.42,124,-143.631,0\C,124,1.38935,122,108.537,121,-136.395,0\C,127,1.39262,126,106.964,125,0.779519,0\C,129,1.34676,127,107.851,126,2.80315,0\C,130,1.38346,129,120.333,127,142.639,0\C,131,1.35037,130,118.982,129,-138.863,0\C,129,1.40162,127,115.847,126,139.222,0\C,133,1.41809,129,123.027,127,-139.918,0\C,134,1.40181,133,116.215,129,4.77458,0\C,122,1.42179,121,115.528,120,8.7758,0\C,136,1.40985,122,106.138,121,138.605,0\C,136,1.41525,122,127.394,121,-7.23721,0\C,138,1.39715,136,113.692,122,2.44257,0\C,139,1.40745,138,107.803,136,143.858,0\C,138,1.41429,136,123.58,122,140.709,0\C,141,1.41967,138,118.22,136,-4.53443,0\C,142,1.38079,141,123.993,138,-137.747,0\C,143,1.39299,142,120.644,141,2.54213,0\C,142,1.41486,141,118.488,138,7.89389,0\C,143,1.42213,142,108.823,141,148.046,0\C,141,1.4812,138,109.687,136,-147.19,0\C,115,1.50784,110,124.332,109,151.686,0\C,148,1.52328,115,128.074,110,62.4107,0\C,149,1.46302,148,118.069,115,8.29511,0\C,150,1.36376,149,120.694,148,-119.624,0\H,151,1.08543,150,116.706,149,-8.84167,0\C,151,1.41827,150,118.839,149,-174.57,0\H,153,1.08539,151,121.428,150,172.874,0\C,153,1.39619,151,122.119,150,-5.14531,0\H,155,1.08583,153,125.011,151,161.883,0\C,150,1.42515,149,119.423,148,57.7015,0\H,157,1.0856,150,121.178,149,-4.4601,0\C,157,1.38138,150,122.45,149,173.013,0\H,159,1.08575,157,122.932,150,-176.198,0\C,149,1.55415,148,120.409,115,152.213,0\H,161,1.09695,149,106.121,148,50.1278,0\H,161,1.09743,149,107.025,148,165.637,0\C,161,1.52023,149,112.957,148,-69.284,0\H,164,1.09661,161,109.183,149,-58.9042,0\H,164,1.09733,161,105.82,149,49.5852,0\C,164,1.5152,161,115.312,149,178.111,0\H,167,1.09672,164,115.037,161,52.8427,0\H,167,1.09699,164,111.07,161,169.646,0\C,167,1.53297,164,116.426,161,-75.5664,0\O,170,1.22115,167,115.834,164,-93.1434,0\O,170,1.42008,167,114.615,164,72.8233,0\C,172,1.41256,170,119.899,167,-167.315,0\H,173,1.09693,172,111.828,170,-49.6935,0\H,173,1.09709,172,101.855,170,68.5749,0\H,173,1.09727,172,111.473,170,-171.263,0\\\@

 Total job time:  884.11s(wall), 8488.30s(cpu) 
 Fri Oct 12 05:53:16 2018

        *************************************************************
        *                                                           *
        *  Thank you very much for using Q-Chem.  Have a nice day.  *
        *                                                           *
        *************************************************************


