
Running Job 1 of 1 ./7/10.qcin
qchem ./7/10.qcin_26767.0 /tmpu/cab_g/afmv_a/scratch_qchem/qchem26767/ 1
/tmpu/appuserlic/qchem4.4/serial-multicore/exe/qcprog.exe_s ./7/10.qcin_26767.0 /tmpu/cab_g/afmv_a/scratch_qchem/qchem26767/
Check license passed

                  Welcome to Q-Chem
     A Quantum Leap Into The Future Of Chemistry


 Q-Chem 4.4, Q-Chem, Inc., Pleasanton, CA (2016)

 Y. Shao,  Z. Gan,  E. Epifanovsky,  A. T. B. Gilbert,  M. Wormit,  
 J. Kussmann,  A. W. Lange,  A. Behn,  J. Deng,  X. Feng,  D. Ghosh,  
 M. Goldey,  P. R. Horn,  L. D. Jacobson,  I. Kaliman,  F. Rob,  
 R. Z. Khaliullin,  T. Kus,  A. Landau,  J. Liu,  E. I. Proynov,  Y. M. Rhee,  
 R. M. Richard,  M. A. Rohrdanz,  R. P. Steele,  E. J. Sundstrom,  
 H. L. Woodcock III,  P. M. Zimmerman,  D. Zuev,  B. Albrecht,  E. Alguire,  
 B. Austin,  S. A. Baeppler,  G. J. O. Beran,  Y. A. Bernard,  E. Berquist,  
 K. Brandhorst,  K. B. Bravaya,  S. T. Brown,  D. Casanova,  C.-M. Chang,  
 Y. Chen,  S. H. Chien,  K. D. Closser,  M. P. Coons,  D. L. Crittenden,  
 S. Dasgupta,  M. Diedenhofen,  R. A. DiStasio Jr.,  H. Do,  A. D. Dutoi,  
 R. G. Edgar,  P.-T. Fang,  S. Fatehi,  Q. Feng,  L. Fusti-Molnar,  
 A. Ghysels,  A. Golubeva-Zadorozhnaya,  J. Gomes,  A. Gunina,  
 M. W. D. Hanson-Heine,  P. H. P. Harbach,  A. W. Hauser,  J. E. Herr,  
 E. G. Hohenstein,  Z. C. Holden,  K. Hui,  T.-C. Jagau,  H. Ji,  B. Kaduk,  
 K. Khistyaev,  Jaehoon Kim,  Jihan Kim,  R. A. King,  P. Klunzinger,  
 K. Koh,  D. Kosenkov,  T. Kowalczyk,  C. M. Krauter,  A. Kunitsa,  
 K. U. Lao,  A. Laurent,  K. V. Lawler,  J. Lee,  D. Lefrancois,  S. Lehtola,  
 S. V. Levchenko,  C. Y. Lin,  Y.-S. Lin,  F. Liu,  E. Livshits,  
 R. C. Lochan,  A. Luenser,  P. Manohar,  S. F. Manzer,  S.-P. Mao,  Y. Mao,  
 N. Mardirossian,  A. V. Marenich,  L. A. Martinez-Martinez,  S. A. Maurer,  
 N. J. Mayhall,  J.-M. Mewes,  A. F. Morrison,  K. Nanda,  T. S. Nguyen-Beck,  
 C. M. Oana,  R. Olivares-Amaya,  D. P. O'Neill,  J. A. Parkhill,  
 T. M. Perrine,  R. Peverati,  P. A. Pieniazek,  F. Plasser,  A. Prociuk,  
 D. R. Rehn,  E. Rosta,  N. J. Russ,  N. Sergueev,  S. M. Sharada,  
 S. Sharma,  D. W. Small,  A. Sodt,  T. Stauch,  T. Stein,  D. Stuck,  
 Y.-C. Su,  A. J. W. Thom,  T. Tsuchimochi,  L. Vogt,  O. Vydrov,  T. Wang,  
 M. A. Watson,  J. Wenzel,  A. White,  C. F. Williams,  V. Vanovschi,  
 K. Yao,  S. Yeganeh,  S. R. Yost,  Z.-Q. You,  I. Y. Zhang,  X. Zhang,  
 Y. Zhao,  B. R. Brooks,  G. K. L. Chan,  D. M. Chipman,  C. J. Cramer,  
 W. A. Goddard III,  M. S. Gordon,  W. J. Hehre,  A. Klamt,  
 H. F. Schaefer III,  M. W. Schmidt,  C. D. Sherrill,  D. G. Truhlar,  
 A. Warshel,  X. Xu,  A. Aspuru-Guzik,  R. Baer,  A. T. Bell,  N. A. Besley,  
 J.-D. Chai,  A. Dreuw,  B. D. Dunietz,  T. R. Furlani,  S. R. Gwaltney,  
 C.-P. Hsu,  Y. Jung,  J. Kong,  D. S. Lambrecht,  W. Liang,  C. Ochsenfeld,  
 V. A. Rassolov,  L. V. Slipchenko,  J. E. Subotnik,  T. Van Voorhis,  
 J. M. Herbert,  A. I. Krylov,  P. M. W. Gill,  M. Head-Gordon

 Contributors to earlier versions of Q-Chem not listed above: 
 R. D. Adamson,  J. Baker,  E. F. C. Byrd,  A. K. Chakraborty,  C.-L. Cheng,  
 H. Dachsel,  R. J. Doerksen,  G. Hawkins,  A. Heyden,  S. Hirata,  
 G. Kedziora,  F. J. Keil,  C. Kelley,  P. P. Korambath,  W. Kurlancheek,  
 A. M. Lee,  M. S. Lee,  D. Liotard,  I. Lotan,  P. E. Maslen,  N. Nair,  
 D. Neuhauser,  R. Olson,  B. Peters,  J. Ritchie,  N. E. Schultz,  
 N. Shenvi,  A. C. Simmonett,  K. S. Thanthiriwatte,  Q. Wu,  W. Zhang

 Please cite Q-Chem as follows:
 Y. Shao et al., Mol. Phys. 113, 184-215 (2015)
 DOI: 10.1080/00268976.2014.952696

 Q-Chem 4.4.2 for Intel X86 Linux

 Parts of Q-Chem use Armadillo 5.200.1 (Boston Tea Smuggler).
 http://arma.sourceforge.net/

 Q-Chem begins on Fri Oct 12 03:13:33 2018  

Host: 
0

     Scratch files written to /tmpu/cab_g/afmv_a/scratch_qchem/qchem26767//
 Dec716 11556_ 22328  22283 4050   
Processing $rem in /tmpu/appuserlic/qchem4.4/serial-multicore/config/preferences.
 MEM_TOTAL  2000 
FILE_GEOM_ORG=        593

Checking the input file for inconsistencies... 	...done.

--------------------------------------------------------------
User input:
--------------------------------------------------------------
$comment
SP
$end

$rem
MEM_STATIC 5000
MEM_TOTAL 20000
JOBTYPE SP
EXCHANGE B3LYP
BASIS 6-31g(d,p)
$end

$molecule
0 1
O         -18.436000     -4.783000     11.762000
C         -19.663000     -4.127000     11.433000
H         -20.430000     -4.834000     11.093000
H         -19.568000     -3.479000     10.552000
H         -20.144000     -3.565000     12.243000
O         -19.351000     -6.406000     13.010000
C         -18.328000     -5.858000     12.584000
C         -16.915000     -6.367000     12.646000
H         -16.751000     -7.013000     13.517000
H         -16.312000     -5.481000     12.882000
C         -16.392000     -6.855000     11.302000
H         -16.403000     -6.066000     10.540000
H         -15.361000     -7.228000     11.339000
C         -17.283000     -8.101000     10.933000
H         -17.032000     -8.972000     11.551000
H         -18.324000     -7.825000     11.141000
C         -17.226000     -8.393000      9.465000
C         -18.203000     -7.636000      8.716000
C         -17.836000     -6.533000      7.918000
H         -16.811000     -6.207000      8.072000
C         -18.859000     -5.774000      7.228000
H         -18.632000     -4.827000      6.747000
C         -20.161000     -6.139000      7.313000
H         -20.879000     -5.724000      6.612000
C         -20.537000     -7.192000      8.068000
H         -21.570000     -7.524000      8.031000
C         -19.506000     -7.984000      8.746000
H         -19.838000     -8.776000      9.411000
C         -16.962000    -12.370000      5.573000
C         -15.558000    -10.610000      4.762000
C         -11.580000    -12.552000      5.135000
C         -15.176000    -13.519000     10.187000
C         -10.717000    -10.652000      8.029000
C         -16.647000    -11.023000      5.437000
C         -12.445000    -13.002000     10.269000
C         -13.638000    -13.478000      4.273000
C         -13.904000     -8.320000      7.478000
C         -14.709000    -12.308000     10.818000
C         -15.862000     -8.693000      8.867000
C         -13.481000     -8.643000      8.768000
C         -13.130000    -10.721000     10.529000
C         -11.316000    -12.606000      9.495000
C         -15.871000     -9.070000      6.335000
C         -10.826000    -12.986000      7.150000
C         -16.908000     -9.775000      8.993000
C         -16.578000    -11.020000      9.918000
C         -10.632000    -11.596000      6.971000
C         -14.133000    -15.204000      7.378000
C         -12.356000    -14.596000      6.134000
C         -13.485000    -14.474000      5.323000
C         -14.902000    -12.880000      4.243000
C         -17.004000    -12.165000      9.241000
C         -15.315000     -8.519000      7.457000
C         -14.667000    -11.502000      4.086000
C         -13.315000    -12.098000     10.853000
C         -15.147000     -9.378000      5.206000
C         -12.229000     -9.153000      8.940000
C         -16.079000    -14.282000      8.363000
C         -12.635000    -12.483000      4.183000
C         -14.544000     -9.008000      9.582000
C         -15.905000    -14.317000      5.928000
C         -12.059000    -10.233000      9.823000
C         -13.141000     -8.653000      6.341000
C         -12.176000    -14.444000      8.554000
C         -12.889000    -14.206000      9.752000
C         -11.841000     -9.144000      6.499000
C         -16.350000    -13.408000      9.425000
C         -15.385000    -11.097000     10.567000
C         -14.861000    -14.883000      8.481000
C         -17.330000    -10.464000      7.710000
C         -12.840000    -10.048000      4.674000
C         -14.376000    -10.091000     10.445000
C         -11.407000     -9.426000      7.804000
C         -16.617000    -13.974000      7.072000
C         -11.084000    -11.316000      5.677000
C         -16.029000    -13.290000      5.036000
C         -11.429000    -13.564000      6.088000
C         -13.781000     -9.159000      5.225000
C         -11.712000    -10.078000      5.499000
C         -16.841000    -10.088000      6.466000
C         -17.501000    -11.860000      7.948000
C         -12.774000    -14.981000      7.389000
C         -13.289000    -11.225000      4.021000
C         -11.172000    -11.187000      9.235000
C         -14.242000    -14.403000      9.638000
C         -11.188000    -13.462000      8.440000
C         -17.335000    -12.847000      6.864000
C         -14.611000    -14.845000      6.107000
O         -15.608000    -17.570000      3.881000
C         -14.236000    -17.386000      3.636000
H         -13.941000    -16.348000      3.437000
H         -13.877000    -17.857000      2.712000
H         -13.613000    -17.721000      4.475000
O         -16.119000    -15.808000      2.465000
C         -16.463000    -16.717000      3.239000
C         -17.905000    -16.977000      3.592000
H         -17.950000    -18.051000      3.375000
H         -18.541000    -16.508000      2.831000
C         -18.184000    -16.560000      5.031000
H         -17.371000    -16.899000      5.686000
H         -18.272000    -15.467000      4.993000
C         -19.457000    -17.166000      5.432000
H         -20.265000    -16.673000      4.878000
H         -19.603000    -18.174000      5.025000
C         -19.685000    -17.274000      6.953000
C         -18.692000    -18.238000      7.596000
C         -17.556000    -17.775000      8.216000
H         -17.333000    -16.721000      8.078000
C         -16.739000    -18.673000      8.980000
H         -15.801000    -18.329000      9.405000
C         -17.176000    -20.011000      9.143000
H         -16.668000    -20.845000      9.618000
C         -18.292000    -20.532000      8.381000
H         -18.411000    -21.611000      8.355000
C         -19.075000    -19.617000      7.671000
H         -19.984000    -19.968000      7.190000
C         -23.478000    -17.896000     10.887000
C         -21.735000    -16.553000     11.998000
C         -23.934000    -12.588000     12.208000
C         -24.914000    -15.583000      6.569000
C         -22.405000    -11.333000      9.287000
C         -22.126000    -17.567000     11.065000
C         -24.609000    -12.826000      6.922000
C         -24.680000    -14.854000     12.483000
C         -19.724000    -14.350000      9.243000
C         -23.808000    -14.930000      6.104000
C         -20.196000    -16.049000      7.731000
C         -20.122000    -13.694000      8.087000
C         -22.276000    -13.244000      6.375000
C         -24.260000    -11.813000      7.797000
C         -20.417000    -16.488000     10.187000
C         -24.642000    -11.613000     10.225000
C         -21.147000    -17.150000      7.490000
C         -22.351000    -16.794000      6.759000
C         -23.256000    -11.345000     10.418000
C         -26.549000    -15.070000      9.614000
C         -25.912000    -13.452000     11.033000
C         -25.777000    -14.661000     11.678000
C         -24.061000    -16.095000     12.444000
C         -23.510000    -17.452000      7.260000
C         -19.835000    -15.769000      9.126000
C         -22.723000    -15.813000     12.661000
C         -23.665000    -13.548000      6.218000
C         -20.732000    -15.901000     11.424000
C         -20.861000    -12.490000      8.181000
C         -25.610000    -16.906000      8.329000
C         -23.830000    -13.847000     12.847000
C         -20.442000    -14.712000      7.150000
C         -25.536000    -16.971000     10.749000
C         -21.920000    -12.295000      7.312000
C         -20.001000    -13.761000     10.487000
C         -26.052000    -12.900000      8.672000
C         -25.768000    -13.492000      7.435000
C         -20.677000    -12.532000     10.595000
C         -24.765000    -16.799000      7.194000
C         -22.561000    -15.472000      6.256000
C         -26.294000    -15.663000      8.337000
C         -21.773000    -17.822000      8.682000
C         -21.448000    -13.777000     12.307000
C         -21.602000    -14.495000      6.429000
C         -21.116000    -11.895000      9.392000
C         -25.249000    -17.544000      9.475000
C         -22.827000    -11.955000     11.611000
C         -24.434000    -17.119000     11.569000
C         -25.027000    -12.399000     11.310000
C         -20.474000    -14.523000     11.591000
C         -21.564000    -12.515000     11.682000
C         -21.333000    -17.495000      9.957000
C         -23.123000    -18.040000      8.448000
C         -26.417000    -13.680000      9.745000
C         -22.594000    -14.415000     12.926000
C         -22.890000    -11.569000      8.032000
C         -25.858000    -14.899000      7.296000
C         -25.090000    -11.895000      8.920000
C         -23.947000    -18.078000      9.648000
C         -26.214000    -15.709000     10.806000
$end

--------------------------------------------------------------
 ----------------------------------------------------------------
             Standard Nuclear Orientation (Angstroms)
    I     Atom           X                Y                Z
 ----------------------------------------------------------------
    1      O       2.5765514617    -8.4988411591    -0.4358774890
    2      C       1.7823572178    -9.2842328065     0.4566030224
    3      H       0.8776929405    -8.7535925122     0.7786921769
    4      H       2.2805992854    -9.4555574226     1.4196672560
    5      H       1.4171812784   -10.2415971043     0.0649333471
    6      O       0.8924483398    -7.8707292318    -1.7768212170
    7      C       2.1070842963    -7.8754631467    -1.5467210577
    8      C       3.1751840448    -7.0540366893    -2.2129908997
    9      H       2.9135589251    -6.8058140652    -3.2487470609
   10      H       4.0200716189    -7.7439938888    -2.3330952293
   11      C       3.7047703509    -5.9292242242    -1.3341597084
   12      H       4.1400785536    -6.3019181921    -0.3988031054
   13      H       4.4849990296    -5.3250933200    -1.8134592595
   14      C       2.4845422137    -4.9560468350    -1.1184583820
   15      H       2.2606771817    -4.3842002308    -2.0275468863
   16      H       1.6128285367    -5.5797913405    -0.8856944302
   17      C       2.6917391949    -4.0839337541     0.0815521118
   18      C       2.2394713059    -4.7122239149     1.3019144475
   19      C       3.1445624144    -5.2330173589     2.2493775201
   20      H       4.1687753547    -5.2833998280     1.8901193126
   21      C       2.6407030631    -5.9005118969     3.4322920546
   22      H       3.3008068632    -6.4568603167     4.0914114739
   23      C       1.3073374482    -5.9942768403     3.6536475888
   24      H       0.9477802875    -6.2718952550     4.6399521381
   25      C       0.4213620258    -5.5016633138     2.7633726512
   26      H      -0.6338298892    -5.4964589186     3.0187643831
   27      C       0.9218610229    -4.7983880358     1.5781243071
   28      H       0.1932478584    -4.4819368536     0.8373851453
   29      C       2.1020952002     1.0315611632     2.2070922102
   30      C       4.2010718192     0.2460911498     3.0460624189
   31      C       6.9745140594     2.9174755126     0.8309550342
   32      C       2.4256311066     0.6438907032    -2.8470179124
   33      C       7.9604386150     0.3331083719    -1.4227095934
   34      C       2.9335111310     0.0127475066     2.6575323096
   35      C       5.0784323289     0.9487031846    -3.6229747578
   36      C       4.9141507572     3.4805814362     1.9595376769
   37      C       6.0853825146    -2.3749578260     0.8243631887
   38      C       3.2012275120    -0.5286387705    -3.1732016784
   39      C       3.9174100979    -3.1862687437     0.0868781411
   40      C       6.1061851897    -2.5037870068    -0.5649993597
   41      C       5.2956962655    -1.3285443185    -2.9111277294
   42      C       6.3936767127     1.2489348706    -3.1641434756
   43      C       4.2268906806    -1.8224875846     2.2310695316
   44      C       7.1186044575     2.6820595156    -1.3464090295
   45      C       2.5300307131    -2.6029286934    -0.0380571565
   46      C       2.1764144312    -1.8109211740    -1.3655471242
   47      C       7.8652300493     1.6088969459    -0.8054383050
   48      C       3.2295457701     3.5557340436    -1.2061508931
   49      C       5.2984800619     4.0520934765    -0.4658352786
   50      C       4.4741973775     3.9548932417     0.6559294786
   51      C       4.0092983674     2.6118831718     2.5782504358
   52      C       1.4718582086    -0.6647949835    -0.9902801731
   53      C       4.7372629334    -2.6001467334     1.2278809094
   54      C       4.7842898227     1.5518604126     3.0827283779
   55      C       4.5356855182    -0.3236090827    -3.5803204041
   56      C       4.9684530245    -0.8838932211     2.9113686650
   57      C       7.0082871379    -1.7730098688    -1.2786973699
   58      C       1.6481547369     1.7935183283    -1.1741638189
   59      C       6.2223776500     2.9453450726     2.0382677978
   60      C       4.8552588457    -2.8282809935    -1.0706444275
   61      C       2.2377251100     2.8742305480     0.9341990231
   62      C       6.5817298328    -1.1525280816    -2.4653060743
   63      C       6.8539606407    -1.4002276356     1.4914581742
   64      C       5.0768337344     2.9781780003    -2.6359694808
   65      C       4.3054522672     2.0749598684    -3.4036833847
   66      C       7.8093568402    -0.6663255494     0.7810703716
   67      C       1.5474548447     0.5231286871    -1.7582277634
   68      C       3.1056245885    -1.6676828663    -2.3486189785
   69      C       2.4941676412     2.6154237736    -1.8578176821
   70      C       2.1167445751    -1.6011845150     1.0224131020
   71      C       6.8906947854     0.5780737563     2.4403992712
   72      C       4.4293947240    -2.1975626989    -2.2397107997
   73      C       7.8532369384    -0.8336222160    -0.6121242890
   74      C       1.5178189718     1.9026471503     0.2478391658
   75      C       7.8022973243     1.7682257402     0.5830118408
   76      C       2.6869571841     2.3165328754     2.0973554397
   77      C       6.5443178842     3.4449042630    -0.3904802544
   78      C       6.2840297386    -0.6881325707     2.5302995410
   79      C       7.7471560614     0.5896434698     1.3357503567
   80      C       2.9320600547    -1.2747026042     2.0979144877
   81      C       1.3777705070    -0.5404525423     0.4195316802
   82      C       4.5418127249     3.7493067890    -1.5765777163
   83      C       6.1485640069     1.7354063329     2.7913440173
   84      C       7.1211961584     0.1695748554    -2.5257122625
   85      C       3.0275425584     1.9029357105    -2.9348886907
   86      C       6.3708660580     2.4597322934    -2.5351806190
   87      C       1.3438475357     0.8065232930     1.0206026670
   88      C       3.1695186415     3.6297883876     0.1951765839
   89      O       1.6205417444     6.6148921616     1.6320259256
   90      C       2.9763247047     6.9511173368     1.4736902186
   91      H       3.6814836609     6.2197540705     1.8883329796
   92      H       3.2874068273     7.8414880427     2.0349084640
   93      H       3.2557724350     7.0754980021     0.4197863253
   94      O       2.1008525190     5.5252562993     3.6201949947
   95      C       1.2961037749     5.8946936547     2.7486512497
   96      C      -0.1721499065     5.5597076283     2.8085552475
   97      H      -0.5891964427     6.5650507262     2.6745871831
   98      H      -0.4257083717     5.2836155959     3.8396029158
   99      C      -0.5261848303     4.5274941447     1.7447669240
  100      H      -0.0429230456     4.7855950397     0.7935797839
  101      H      -0.1752463856     3.5722082037     2.1547766543
  102      C      -1.9845940810     4.5207453847     1.5979237714
  103      H      -2.4221661638     4.0893606093     2.5063657608
  104      H      -2.4325291651     5.5179881173     1.6867499657
  105      C      -2.5109804529     3.9237065634     0.2774878459
  106      C      -2.1050479232     4.7792283558    -0.9192139732
  107      C      -1.0128014266     4.4508148926    -1.6862910149
  108      H      -0.3776672387     3.6598331198    -1.2981655220
  109      C      -0.7624743380     5.1488892670    -2.9141417862
  110      H       0.1404788791     4.9465680659    -3.4820736654
  111      C      -1.7055766548     6.1137223725    -3.3470818496
  112      H      -1.6567146492     6.7862525821    -4.1982931169
  113      C      -2.7762209103     6.5564050882    -2.4780053907
  114      H      -3.2970426041     7.4663139800    -2.7606510558
  115      C      -2.9991306701     5.8312214065    -1.3037678224
  116      H      -3.8683388690     6.0709488337    -0.6972607180
  117      C      -6.8994455662     1.7542807557    -2.2295132738
  118      C      -5.0077200955     0.6374902369    -3.3476244851
  119      C      -5.4967482732    -3.5116914868    -1.5739084806
  120      C      -6.5099586349     1.1140468200     2.8198024658
  121      C      -3.0940946921    -2.9574600136     0.9490243848
  122      C      -5.5830154987     1.7855280622    -2.7131086454
  123      C      -5.2308156126    -1.3283610723     3.2857636402
  124      C      -7.0991064232    -1.8789444496    -2.3043073247
  125      C      -1.8326631357     0.4420706781    -0.8240992726
  126      C      -5.1725059425     1.0583783910     3.0918159243
  127      C      -2.6405186833     2.3972815130     0.1350925776
  128      C      -1.7263944891     0.2349562781     0.5437042952
  129      C      -3.1846966752    -0.0707615359     2.9001956176
  130      C      -4.6832338629    -2.4637899937     2.7160703964
  131      C      -3.4600539970     1.7044865996    -2.1280678404
  132      C      -5.3955235660    -3.7442176199     0.7325743735
  133      C      -3.8822172714     3.1751668051     0.3017121708
  134      C      -4.6982494045     2.8210826278     1.4503761570
  135      C      -4.0747556705    -3.6565777914     0.2053548492
  136      C      -8.3460714524    -1.0511610296     0.7828970459
  137      C      -7.4034885942    -2.8506157830    -0.1714373535
  138      C      -7.8680660099    -2.0308261962    -1.1754512271
  139      C      -7.0135201502    -0.6112063514    -2.8613334501
  140      C      -6.0921183928     2.8510375520     1.1614506548
  141      C      -2.4613268529     1.6858081628    -1.1363011301
  142      C      -5.7350917625    -0.5593487776    -3.3902839672
  143      C      -4.5287161709    -0.1429100067     3.3847492196
  144      C      -3.7437559702     0.5978319738    -2.9458647160
  145      C      -1.9448106893    -1.0578945535     1.0779365394
  146      C      -7.9737171069     1.3352887402     1.0475699335
  147      C      -6.0076087025    -2.6551002204    -2.5786427858
  148      C      -2.2383575344     1.4085261581     1.1579685517
  149      C      -8.3752140388     0.4186061401    -1.1580125801
  150      C      -2.6669414767    -1.1742800376     2.2525209532
  151      C      -2.0825384789    -0.6582565659    -1.6595801335
  152      C      -6.8837374825    -2.3984759835     2.1575223678
  153      C      -6.6299817955    -1.2964151269     2.9835725598
  154      C      -2.2369105643    -1.9603605719    -1.1498984519
  155      C      -6.9609364275     1.9521369501     1.8269752077
  156      C      -4.2836575729     1.8236173978     2.3873765456
  157      C      -8.1115800305     0.0598541873     1.6535645833
  158      C      -4.9264786410     3.0867061252    -0.7781104535
  159      C      -3.7294210293    -1.8084574699    -2.8305971041
  160      C      -3.0703225673     1.1832453544     2.2394549102
  161      C      -2.1664406764    -2.1435252795     0.2668526500
  162      C      -8.1046103677     1.5202935358    -0.2938178478
  163      C      -4.1419681295    -3.4955402930    -1.1906893512
  164      C      -7.5870483049     0.5268335835    -2.2875211443
  165      C      -6.2466126063    -3.6207547341    -0.3645356307
  166      C      -3.0073174807    -0.5886818783    -2.7380661838
  167      C      -3.2308042378    -2.6768483737    -1.8335998456
  168      C      -4.6357231048     2.4066016015    -1.9524498657
  169      C      -6.1878388711     2.9830122036    -0.2097813757
  170      C      -7.7122339117    -2.2695194388     1.0666887982
  171      C      -5.1254044315    -1.8405424524    -3.2226709425
  172      C      -3.3939125884    -2.3772456267     2.1487770653
  173      C      -7.2309933600    -0.0479786981     2.6881718444
  174      C      -5.6705778566    -3.0930204647     1.9505811068
  175      C      -7.1668146637     2.2858088557    -1.0319333623
  176      C      -8.5092675356    -0.8916700285    -0.5916354779
 ----------------------------------------------------------------
 Molecular Point Group                 C1    NOp =  1
 Largest Abelian Subgroup              C1    NOp =  1
 Nuclear Repulsion Energy = 35863.8668317377 hartrees
 There are      462 alpha and      462 beta electrons
 Requested basis set is 6-31G(d,p)
 There are 676 shells and 2360 basis functions

 Total QAlloc Memory Limit  20000 MB
 Mega-Array Size      4888 MB
 MEM_STATIC part      5000 MB
 A cutoff of  1.0D-08 yielded  39477 shell pairs
 There are    548700 function pairs
 
 -------------------------------------------------------
 OpenMP Integral Computing Module                       
 Release: version 1.0, May 2013, Q-Chem Inc. Pittsburgh 
 -------------------------------------------------------
 Integral Job Info:
 Integral job number is                      11
 Integral operator is                         1
 short-range coefficients                     0
 long-range coefficients              100000000
 Omega coefficients                           0
 if combine SR and LR in K                    0
 Integral screening is                        0
 Integral computing path is                   2
 max size of driver memory is            800000
 size of driver memory is                593474
 size of scratch memory is              2260544
 max col of scratch BK array               1296
 max len of scratch array in speh3          155
 max len of scratch index in speh4           18
 max int batch size is                      520
 min int batch size is                       52
 fixed nKL is                                52
 max L of basis functions is                  2
 order of int derivative is                   0
 number of shells is                        676
 number of basis is                        2360
 number of cartesian basis is              2360
 number of contracted shell pairs         39477
 number of primitive shell pairs         118055
 maxK2 (contraction) of shell pair           36
 max number of K2 of shell pair               1
 max number of CS2 of shell pair           7465
 max number of PS2 of shell pair          35460
 mem total for path MDJ                 1558952
 -------------------------------------------------------
 Smallest overlap matrix eigenvalue = 2.33E-04

 Scale SEOQF with 1.000000e-02/1.000000e-02/1.000000e-01

 Standard Electronic Orientation quadrupole field applied
 Nucleus-field energy     =    -0.0000002595 hartrees
 Guess from superposition of atomic densities
 Warning:  Energy on first SCF cycle will be non-variational
 A restricted hybrid HF-DFT SCF calculation will be
 performed using Pulay DIIS extrapolation
 Exchange:     0.2000 Hartree-Fock + 0.0800 Slater + 0.7200 B88
 Correlation:  0.1900 VWN1RPA + 0.8100 LYP
 Using SG-1 standard quadrature grid
 SCF converges when DIIS error is below 1.0E-05
 using 16 threads for integral computing 
 -------------------------------------------------------
 OpenMP BLAS3 based DFT computing Module                
 Release: version 1.0, May 2013, Q-Chem Inc. Pittsburgh 
 -------------------------------------------------------
 ---------------------------------------
  Cycle       Energy         DIIS Error
 ---------------------------------------
    1   -5859.7444280942      1.85E-02
    2   -5803.0131214427      1.31E-03
    3   -5802.1695477604      1.84E-03
    4   -5803.9093084754      6.48E-04
    5   -5804.1338725005      2.91E-04
    6   -5804.1823889506      1.45E-04
    7   -5804.1963152548      5.31E-05
    8   -5804.1976733926      3.29E-05
    9   -5804.1984873280      8.45E-06 Convergence criterion met
 ---------------------------------------
 SCF time:  CPU 8684.72 s  wall 890.20 s
 SCF   energy in the final basis set = -5804.1984873280
 Total energy in the final basis set = -5804.1984873280
 
 --------------------------------------------------------------
 
                    Orbital Energies (a.u.)
 --------------------------------------------------------------
 
 Alpha MOs
 -- Occupied --
-19.198 -19.193 -19.134 -19.131 -10.322 -10.314 -10.246 -10.243
-10.243 -10.238 -10.236 -10.235 -10.232 -10.231 -10.230 -10.229
-10.229 -10.227 -10.227 -10.226 -10.226 -10.224 -10.224 -10.222
-10.221 -10.221 -10.221 -10.220 -10.220 -10.220 -10.220 -10.220
-10.219 -10.219 -10.219 -10.219 -10.219 -10.218 -10.218 -10.218
-10.217 -10.217 -10.217 -10.217 -10.217 -10.217 -10.216 -10.216
-10.216 -10.216 -10.215 -10.215 -10.215 -10.215 -10.215 -10.215
-10.215 -10.215 -10.214 -10.214 -10.214 -10.214 -10.214 -10.214
-10.214 -10.214 -10.214 -10.213 -10.213 -10.213 -10.213 -10.213
-10.213 -10.213 -10.213 -10.213 -10.213 -10.212 -10.212 -10.212
-10.212 -10.211 -10.211 -10.211 -10.211 -10.211 -10.211 -10.211
-10.210 -10.210 -10.210 -10.210 -10.210 -10.210 -10.210 -10.210
-10.210 -10.210 -10.209 -10.209 -10.209 -10.209 -10.209 -10.209
-10.209 -10.209 -10.209 -10.209 -10.208 -10.208 -10.208 -10.207
-10.207 -10.207 -10.207 -10.207 -10.207 -10.207 -10.207 -10.207
-10.207 -10.207 -10.207 -10.206 -10.205 -10.205 -10.204 -10.204
-10.204 -10.203 -10.203 -10.203 -10.203 -10.202 -10.202 -10.201
-10.201 -10.201 -10.200 -10.200 -10.200 -10.199 -10.199 -10.198
-10.198 -10.195 -10.193 -10.189  -1.096  -1.095  -1.001  -1.001
 -0.987  -0.985  -0.971  -0.968  -0.965  -0.965  -0.964  -0.962
 -0.939  -0.935  -0.933  -0.930  -0.929  -0.927  -0.926  -0.925
 -0.922  -0.920  -0.905  -0.897  -0.894  -0.893  -0.887  -0.886
 -0.879  -0.872  -0.858  -0.848  -0.844  -0.842  -0.841  -0.841
 -0.839  -0.839  -0.830  -0.826  -0.816  -0.812  -0.801  -0.799
 -0.798  -0.796  -0.796  -0.796  -0.794  -0.793  -0.789  -0.785
 -0.776  -0.773  -0.772  -0.771  -0.769  -0.768  -0.766  -0.763
 -0.751  -0.748  -0.742  -0.740  -0.739  -0.731  -0.717  -0.717
 -0.716  -0.715  -0.714  -0.713  -0.712  -0.712  -0.711  -0.710
 -0.710  -0.709  -0.707  -0.704  -0.704  -0.699  -0.674  -0.673
 -0.661  -0.661  -0.660  -0.659  -0.653  -0.646  -0.639  -0.631
 -0.630  -0.626  -0.626  -0.626  -0.623  -0.622  -0.621  -0.617
 -0.616  -0.616  -0.615  -0.614  -0.612  -0.612  -0.610  -0.610
 -0.609  -0.606  -0.605  -0.602  -0.574  -0.573  -0.566  -0.564
 -0.563  -0.561  -0.560  -0.558  -0.558  -0.557  -0.557  -0.555
 -0.540  -0.537  -0.534  -0.530  -0.528  -0.527  -0.527  -0.525
 -0.524  -0.522  -0.521  -0.520  -0.518  -0.516  -0.515  -0.514
 -0.510  -0.505  -0.504  -0.498  -0.494  -0.492  -0.490  -0.488
 -0.486  -0.483  -0.482  -0.482  -0.481  -0.479  -0.477  -0.476
 -0.474  -0.472  -0.471  -0.470  -0.470  -0.469  -0.468  -0.467
 -0.466  -0.466  -0.465  -0.464  -0.463  -0.463  -0.461  -0.460
 -0.459  -0.457  -0.454  -0.454  -0.452  -0.448  -0.445  -0.444
 -0.443  -0.443  -0.440  -0.438  -0.437  -0.436  -0.435  -0.433
 -0.433  -0.430  -0.430  -0.429  -0.428  -0.427  -0.425  -0.423
 -0.422  -0.422  -0.421  -0.421  -0.420  -0.420  -0.420  -0.418
 -0.418  -0.417  -0.416  -0.416  -0.415  -0.415  -0.414  -0.413
 -0.412  -0.410  -0.409  -0.407  -0.404  -0.403  -0.395  -0.393
 -0.393  -0.391  -0.390  -0.390  -0.388  -0.387  -0.386  -0.385
 -0.385  -0.379  -0.378  -0.374  -0.371  -0.370  -0.368  -0.367
 -0.367  -0.365  -0.364  -0.363  -0.362  -0.361  -0.359  -0.359
 -0.359  -0.356  -0.356  -0.355  -0.354  -0.351  -0.351  -0.350
 -0.349  -0.348  -0.348  -0.347  -0.347  -0.346  -0.346  -0.344
 -0.343  -0.342  -0.340  -0.340  -0.339  -0.337  -0.334  -0.333
 -0.332  -0.331  -0.330  -0.330  -0.328  -0.327  -0.324  -0.323
 -0.313  -0.305  -0.298  -0.295  -0.291  -0.287  -0.273  -0.272
 -0.269  -0.268  -0.267  -0.267  -0.265  -0.264  -0.264  -0.263
 -0.261  -0.260  -0.259  -0.259  -0.258  -0.257  -0.255  -0.252
 -0.250  -0.248  -0.246  -0.243  -0.226  -0.219  -0.215  -0.210
 -0.209  -0.208  -0.206  -0.202  -0.200  -0.198
 -- Virtual --
 -0.123  -0.121  -0.119  -0.114  -0.113  -0.108  -0.077  -0.073
 -0.073  -0.068  -0.063  -0.062  -0.055  -0.051  -0.027  -0.026
 -0.023  -0.019  -0.018  -0.016  -0.016  -0.015  -0.014  -0.013
 -0.013  -0.010  -0.007  -0.005  -0.005  -0.003  -0.003   0.003
  0.007   0.016   0.037   0.039   0.041   0.042   0.045   0.047
  0.049   0.053   0.054   0.061   0.064   0.066   0.067   0.069
  0.070   0.078   0.083   0.086   0.087   0.089   0.092   0.094
  0.097   0.098   0.100   0.103   0.104   0.106   0.106   0.108
  0.111   0.112   0.113   0.117   0.118   0.120   0.121   0.121
  0.123   0.124   0.128   0.129   0.129   0.130   0.134   0.136
  0.140   0.141   0.143   0.144   0.151   0.155   0.156   0.158
  0.158   0.160   0.161   0.162   0.166   0.167   0.169   0.171
  0.174   0.174   0.176   0.179   0.179   0.180   0.182   0.182
  0.185   0.185   0.187   0.188   0.190   0.192   0.193   0.194
  0.195   0.199   0.201   0.203   0.203   0.205   0.205   0.207
  0.208   0.211   0.211   0.216   0.216   0.217   0.220   0.223
  0.223   0.225   0.226   0.227   0.228   0.228   0.231   0.232
  0.234   0.235   0.236   0.238   0.238   0.241   0.242   0.243
  0.244   0.245   0.246   0.252   0.254   0.256   0.260   0.262
  0.264   0.268   0.272   0.273   0.275   0.278   0.279   0.282
  0.285   0.286   0.287   0.289   0.291   0.295   0.303   0.305
  0.312   0.313   0.313   0.315   0.317   0.319   0.319   0.322
  0.325   0.327   0.330   0.330   0.331   0.332   0.333   0.335
  0.338   0.339   0.342   0.343   0.344   0.345   0.346   0.348
  0.353   0.354   0.355   0.358   0.372   0.376   0.378   0.392
  0.395   0.395   0.402   0.404   0.404   0.408   0.410   0.411
  0.412   0.417   0.418   0.419   0.421   0.422   0.424   0.425
  0.429   0.430   0.432   0.436   0.438   0.440   0.442   0.444
  0.448   0.449   0.451   0.452   0.455   0.457   0.460   0.461
  0.463   0.464   0.465   0.466   0.468   0.470   0.472   0.474
  0.476   0.478   0.479   0.479   0.482   0.484   0.485   0.486
  0.488   0.489   0.490   0.492   0.494   0.494   0.495   0.497
  0.497   0.498   0.499   0.501   0.502   0.502   0.504   0.506
  0.506   0.507   0.507   0.509   0.509   0.511   0.512   0.513
  0.514   0.515   0.515   0.516   0.517   0.518   0.519   0.520
  0.520   0.523   0.524   0.524   0.525   0.526   0.527   0.527
  0.529   0.531   0.531   0.532   0.532   0.533   0.534   0.535
  0.535   0.536   0.536   0.537   0.538   0.540   0.540   0.541
  0.542   0.543   0.544   0.544   0.545   0.545   0.547   0.547
  0.548   0.549   0.549   0.550   0.551   0.552   0.553   0.553
  0.554   0.554   0.555   0.556   0.557   0.558   0.560   0.560
  0.561   0.562   0.563   0.563   0.564   0.565   0.566   0.566
  0.568   0.568   0.569   0.570   0.571   0.572   0.572   0.574
  0.575   0.577   0.577   0.577   0.578   0.579   0.580   0.580
  0.582   0.582   0.584   0.585   0.586   0.586   0.587   0.588
  0.589   0.590   0.590   0.592   0.593   0.594   0.594   0.595
  0.596   0.597   0.597   0.598   0.599   0.601   0.603   0.604
  0.604   0.605   0.607   0.607   0.608   0.610   0.611   0.614
  0.614   0.615   0.616   0.617   0.617   0.618   0.619   0.621
  0.623   0.624   0.625   0.627   0.628   0.628   0.630   0.630
  0.630   0.632   0.632   0.633   0.634   0.635   0.636   0.637
  0.638   0.638   0.640   0.640   0.640   0.641   0.642   0.643
  0.643   0.644   0.646   0.648   0.649   0.649   0.650   0.651
  0.653   0.654   0.655   0.656   0.657   0.658   0.659   0.660
  0.661   0.661   0.662   0.663   0.664   0.665   0.665   0.666
  0.667   0.668   0.669   0.669   0.670   0.671   0.673   0.674
  0.674   0.675   0.676   0.677   0.678   0.678   0.680   0.681
  0.683   0.685   0.686   0.686   0.689   0.689   0.691   0.692
  0.693   0.695   0.695   0.696   0.696   0.697   0.700   0.701
  0.703   0.704   0.705   0.705   0.706   0.707   0.708   0.709
  0.710   0.711   0.712   0.713   0.714   0.717   0.717   0.719
  0.719   0.721   0.722   0.723   0.724   0.726   0.728   0.728
  0.729   0.731   0.734   0.734   0.736   0.736   0.738   0.739
  0.739   0.740   0.741   0.742   0.745   0.746   0.747   0.750
  0.750   0.751   0.754   0.755   0.756   0.759   0.759   0.760
  0.762   0.763   0.764   0.765   0.766   0.768   0.770   0.771
  0.773   0.773   0.775   0.775   0.777   0.779   0.780   0.781
  0.782   0.783   0.784   0.785   0.787   0.789   0.789   0.789
  0.792   0.793   0.794   0.795   0.797   0.799   0.800   0.801
  0.802   0.802   0.803   0.804   0.805   0.806   0.808   0.808
  0.810   0.810   0.811   0.812   0.813   0.813   0.814   0.815
  0.815   0.816   0.817   0.817   0.819   0.819   0.820   0.820
  0.821   0.822   0.823   0.824   0.824   0.825   0.826   0.827
  0.828   0.829   0.831   0.832   0.834   0.835   0.835   0.836
  0.838   0.841   0.842   0.847   0.847   0.850   0.850   0.852
  0.853   0.859   0.860   0.862   0.864   0.867   0.871   0.874
  0.875   0.878   0.881   0.883   0.887   0.888   0.888   0.898
  0.899   0.902   0.903   0.905   0.908   0.909   0.910   0.915
  0.917   0.919   0.923   0.924   0.927   0.927   0.928   0.931
  0.932   0.934   0.934   0.938   0.938   0.940   0.942   0.943
  0.944   0.946   0.950   0.953   0.954   0.955   0.958   0.961
  0.962   0.966   0.970   0.971   0.973   0.974   0.976   0.982
  0.984   0.985   0.987   0.989   0.992   0.993   0.993   0.995
  0.998   0.999   1.002   1.003   1.005   1.006   1.009   1.010
  1.013   1.015   1.016   1.016   1.019   1.021   1.023   1.023
  1.026   1.027   1.028   1.029   1.031   1.033   1.034   1.035
  1.038   1.039   1.040   1.043   1.044   1.047   1.048   1.049
  1.049   1.050   1.051   1.053   1.055   1.057   1.058   1.061
  1.063   1.063   1.068   1.069   1.070   1.071   1.073   1.075
  1.075   1.077   1.079   1.082   1.083   1.085   1.086   1.088
  1.091   1.092   1.095   1.096   1.096   1.098   1.100   1.101
  1.102   1.103   1.106   1.108   1.110   1.115   1.116   1.117
  1.118   1.122   1.123   1.126   1.126   1.128   1.131   1.133
  1.135   1.140   1.141   1.143   1.145   1.147   1.150   1.152
  1.153   1.155   1.156   1.158   1.161   1.162   1.164   1.166
  1.168   1.169   1.170   1.170   1.172   1.175   1.176   1.179
  1.179   1.181   1.182   1.183   1.184   1.184   1.188   1.191
  1.194   1.196   1.197   1.198   1.200   1.202   1.204   1.208
  1.208   1.210   1.213   1.217   1.218   1.222   1.226   1.226
  1.229   1.234   1.234   1.239   1.241   1.244   1.247   1.247
  1.251   1.253   1.254   1.257   1.258   1.261   1.261   1.263
  1.266   1.268   1.269   1.273   1.274   1.275   1.278   1.279
  1.281   1.284   1.285   1.287   1.288   1.293   1.296   1.297
  1.300   1.305   1.307   1.308   1.309   1.314   1.315   1.319
  1.320   1.322   1.326   1.327   1.332   1.333   1.335   1.336
  1.340   1.342   1.345   1.346   1.348   1.351   1.355   1.357
  1.358   1.359   1.362   1.363   1.365   1.367   1.368   1.371
  1.375   1.376   1.378   1.382   1.383   1.387   1.388   1.391
  1.392   1.393   1.399   1.401   1.404   1.410   1.410   1.412
  1.414   1.416   1.418   1.422   1.424   1.426   1.434   1.434
  1.437   1.439   1.441   1.442   1.443   1.445   1.451   1.452
  1.455   1.456   1.458   1.460   1.464   1.465   1.466   1.467
  1.469   1.470   1.475   1.477   1.479   1.481   1.482   1.483
  1.485   1.488   1.490   1.494   1.497   1.499   1.502   1.504
  1.505   1.508   1.510   1.512   1.513   1.518   1.519   1.522
  1.524   1.526   1.529   1.532   1.536   1.539   1.539   1.544
  1.545   1.548   1.553   1.553   1.556   1.557   1.559   1.563
  1.564   1.569   1.571   1.574   1.576   1.577   1.580   1.582
  1.584   1.585   1.587   1.590   1.592   1.593   1.595   1.596
  1.599   1.602   1.604   1.609   1.610   1.612   1.618   1.622
  1.626   1.630   1.632   1.636   1.639   1.640   1.642   1.646
  1.650   1.653   1.656   1.659   1.664   1.668   1.669   1.671
  1.679   1.684   1.689   1.691   1.698   1.699   1.701   1.705
  1.710   1.713   1.713   1.714   1.718   1.720   1.724   1.726
  1.729   1.729   1.730   1.732   1.735   1.736   1.737   1.740
  1.742   1.744   1.746   1.748   1.749   1.752   1.753   1.754
  1.755   1.756   1.757   1.758   1.759   1.760   1.762   1.764
  1.765   1.767   1.768   1.769   1.769   1.772   1.774   1.775
  1.776   1.778   1.779   1.780   1.781   1.782   1.782   1.784
  1.786   1.788   1.789   1.791   1.792   1.792   1.795   1.795
  1.797   1.798   1.799   1.799   1.801   1.801   1.803   1.805
  1.805   1.806   1.807   1.809   1.810   1.811   1.814   1.814
  1.815   1.818   1.819   1.820   1.822   1.825   1.827   1.829
  1.831   1.833   1.835   1.838   1.839   1.841   1.845   1.846
  1.848   1.850   1.854   1.856   1.857   1.858   1.860   1.862
  1.863   1.866   1.866   1.869   1.871   1.872   1.873   1.875
  1.878   1.880   1.882   1.882   1.885   1.886   1.888   1.889
  1.891   1.893   1.898   1.901   1.901   1.906   1.909   1.912
  1.913   1.915   1.918   1.920   1.924   1.925   1.927   1.928
  1.931   1.932   1.933   1.935   1.936   1.939   1.940   1.941
  1.941   1.944   1.947   1.949   1.949   1.952   1.954   1.957
  1.960   1.960   1.961   1.963   1.965   1.972   1.973   1.973
  1.976   1.978   1.979   1.980   1.984   1.987   1.988   1.990
  1.990   1.994   1.995   1.996   1.998   1.999   2.001   2.001
  2.004   2.005   2.007   2.008   2.010   2.011   2.012   2.013
  2.014   2.016   2.019   2.020   2.021   2.022   2.024   2.025
  2.026   2.026   2.028   2.029   2.030   2.031   2.032   2.033
  2.035   2.036   2.037   2.039   2.041   2.041   2.041   2.043
  2.043   2.045   2.047   2.048   2.049   2.049   2.051   2.052
  2.053   2.054   2.057   2.057   2.059   2.059   2.060   2.062
  2.063   2.065   2.066   2.068   2.069   2.071   2.072   2.073
  2.075   2.076   2.078   2.079   2.081   2.083   2.085   2.085
  2.086   2.088   2.088   2.089   2.092   2.093   2.096   2.097
  2.099   2.102   2.104   2.105   2.107   2.108   2.111   2.112
  2.113   2.115   2.118   2.121   2.122   2.125   2.128   2.131
  2.132   2.134   2.136   2.141   2.144   2.147   2.148   2.153
  2.155   2.157   2.159   2.162   2.167   2.171   2.174   2.179
  2.183   2.187   2.190   2.192   2.199   2.207   2.211   2.214
  2.218   2.219   2.221   2.222   2.224   2.233   2.235   2.238
  2.240   2.241   2.242   2.245   2.247   2.249   2.250   2.252
  2.255   2.256   2.258   2.260   2.262   2.262   2.265   2.268
  2.271   2.274   2.277   2.280   2.281   2.285   2.285   2.288
  2.289   2.290   2.294   2.297   2.298   2.302   2.304   2.306
  2.307   2.309   2.312   2.313   2.316   2.319   2.320   2.324
  2.326   2.327   2.328   2.334   2.335   2.335   2.339   2.343
  2.344   2.348   2.349   2.355   2.356   2.357   2.359   2.360
  2.361   2.365   2.368   2.369   2.371   2.373   2.374   2.375
  2.379   2.381   2.382   2.384   2.385   2.386   2.388   2.389
  2.390   2.391   2.394   2.396   2.399   2.400   2.401   2.403
  2.403   2.407   2.409   2.409   2.410   2.413   2.416   2.417
  2.418   2.419   2.421   2.423   2.424   2.425   2.426   2.429
  2.431   2.433   2.433   2.437   2.439   2.443   2.445   2.446
  2.449   2.450   2.455   2.455   2.458   2.461   2.463   2.464
  2.467   2.469   2.472   2.473   2.474   2.475   2.481   2.481
  2.484   2.486   2.488   2.490   2.491   2.494   2.495   2.495
  2.498   2.500   2.504   2.505   2.507   2.511   2.513   2.516
  2.517   2.519   2.521   2.524   2.524   2.527   2.528   2.529
  2.532   2.533   2.536   2.537   2.539   2.541   2.547   2.548
  2.551   2.558   2.558   2.562   2.565   2.570   2.575   2.576
  2.577   2.578   2.584   2.586   2.590   2.592   2.594   2.597
  2.598   2.603   2.603   2.606   2.609   2.610   2.611   2.612
  2.614   2.615   2.617   2.619   2.623   2.625   2.626   2.628
  2.631   2.631   2.634   2.635   2.635   2.637   2.640   2.642
  2.645   2.646   2.648   2.649   2.651   2.653   2.655   2.657
  2.659   2.661   2.662   2.664   2.665   2.666   2.668   2.669
  2.671   2.672   2.673   2.676   2.676   2.679   2.683   2.683
  2.685   2.686   2.688   2.689   2.690   2.693   2.695   2.696
  2.696   2.699   2.701   2.704   2.706   2.710   2.714   2.715
  2.716   2.719   2.720   2.722   2.724   2.725   2.727   2.728
  2.736   2.737   2.739   2.740   2.743   2.744   2.746   2.747
  2.752   2.754   2.757   2.758   2.761   2.762   2.765   2.768
  2.770   2.772   2.775   2.776   2.779   2.780   2.783   2.784
  2.787   2.789   2.790   2.794   2.795   2.796   2.797   2.800
  2.804   2.806   2.807   2.811   2.813   2.820   2.824   2.826
  2.829   2.833   2.837   2.841   2.842   2.845   2.849   2.850
  2.853   2.856   2.859   2.861   2.864   2.865   2.870   2.873
  2.875   2.877   2.882   2.882   2.883   2.884   2.886   2.889
  2.890   2.893   2.895   2.897   2.898   2.900   2.902   2.903
  2.905   2.906   2.908   2.910   2.911   2.913   2.914   2.915
  2.917   2.920   2.921   2.922   2.923   2.926   2.927   2.929
  2.931   2.932   2.933   2.936   2.938   2.941   2.943   2.944
  2.948   2.949   2.951   2.953   2.956   2.958   2.959   2.961
  2.965   2.966   2.968   2.970   2.971   2.976   2.981   2.982
  2.984   2.988   2.990   2.993   2.997   3.003   3.009   3.010
  3.012   3.017   3.023   3.023   3.027   3.029   3.032   3.034
  3.036   3.037   3.038   3.041   3.044   3.048   3.049   3.052
  3.055   3.057   3.059   3.061   3.065   3.067   3.070   3.073
  3.074   3.075   3.079   3.086   3.088   3.099   3.105   3.107
  3.114   3.118   3.127   3.131   3.132   3.138   3.147   3.150
  3.155   3.157   3.166   3.175   3.179   3.184   3.189   3.193
  3.195   3.205   3.206   3.214   3.219   3.231   3.244   3.255
  3.257   3.263   3.266   3.269   3.273   3.282   3.284   3.288
  3.294   3.294   3.312   3.314   3.316   3.323   3.333   3.335
  3.337   3.339   3.350   3.351   3.359   3.362   3.385   3.397
  3.425   3.430   3.432   3.436   3.443   3.446   3.454   3.461
  3.463   3.472   3.480   3.486   3.488   3.492   3.493   3.495
  3.501   3.503   3.512   3.523   3.547   3.550   3.553   3.558
  3.559   3.563   3.567   3.575   3.580   3.587   3.589   3.591
  3.603   3.635   3.694   3.712   3.833   3.866   4.016   4.043
  4.071   4.087   4.090   4.094   4.099   4.104   4.106   4.108
  4.114   4.114   4.117   4.119   4.122   4.125   4.127   4.132
  4.136   4.140   4.147   4.148   4.151   4.153   4.156   4.158
  4.163   4.166   4.167   4.170   4.175   4.177   4.186   4.190
  4.196   4.197   4.213   4.222   4.226   4.231   4.243   4.247
  4.251   4.252   4.257   4.258   4.264   4.265   4.270   4.275
  4.275   4.280   4.287   4.293   4.294   4.303   4.304   4.307
  4.312   4.315   4.318   4.335   4.387   4.391   4.396   4.400
  4.401   4.404   4.411   4.412   4.417   4.417   4.424   4.427
  4.429   4.432   4.436   4.443   4.449   4.451   4.457   4.480
  4.483   4.497   4.514   4.523   4.534   4.549   4.556   4.562
  4.566   4.572   4.625   4.635   4.637   4.641   4.643   4.651
  4.658   4.660   4.687   4.688   4.697   4.703   4.706   4.708
  4.710   4.713   4.717   4.721   4.730   4.780   4.806   4.807
  4.842   4.852   4.872   4.874   4.882   4.885   4.894   4.904
  4.911   4.921   4.935   4.976   4.978   4.993   4.996   5.001
  5.004   5.007   5.014   5.021   5.155   5.175   5.195   5.203
  5.210   5.212   5.214   5.223   5.290   5.323   5.336   5.346
  5.351   5.376
 --------------------------------------------------------------
 
          Ground-State Mulliken Net Atomic Charges

     Atom                 Charge (a.u.)
  ----------------------------------------
      1 O                    -0.450919
      2 C                    -0.083538
      3 H                     0.130499
      4 H                     0.123829
      5 H                     0.124692
      6 O                    -0.478858
      7 C                     0.581584
      8 C                    -0.247234
      9 H                     0.134517
     10 H                     0.124724
     11 C                    -0.187633
     12 H                     0.124566
     13 H                     0.114443
     14 C                    -0.206478
     15 H                     0.112653
     16 H                     0.139765
     17 C                     0.019785
     18 C                     0.125597
     19 C                    -0.121322
     20 H                     0.087770
     21 C                    -0.101215
     22 H                     0.089971
     23 C                    -0.068196
     24 H                     0.091414
     25 C                    -0.095261
     26 H                     0.095612
     27 C                    -0.129700
     28 H                     0.094463
     29 C                    -0.060411
     30 C                     0.033474
     31 C                    -0.001246
     32 C                    -0.033876
     33 C                    -0.007061
     34 C                     0.027781
     35 C                     0.016955
     36 C                    -0.020530
     37 C                    -0.011626
     38 C                    -0.023579
     39 C                    -0.089754
     40 C                     0.027879
     41 C                    -0.003192
     42 C                    -0.004123
     43 C                     0.012961
     44 C                     0.000862
     45 C                    -0.106095
     46 C                     0.010034
     47 C                     0.001686
     48 C                    -0.013824
     49 C                    -0.031643
     50 C                    -0.000107
     51 C                     0.039407
     52 C                     0.017703
     53 C                     0.026109
     54 C                     0.004330
     55 C                    -0.000320
     56 C                    -0.034199
     57 C                    -0.013929
     58 C                    -0.009691
     59 C                    -0.024413
     60 C                     0.032496
     61 C                    -0.029428
     62 C                    -0.002752
     63 C                    -0.004968
     64 C                     0.017262
     65 C                    -0.031984
     66 C                    -0.002534
     67 C                    -0.009544
     68 C                     0.035490
     69 C                     0.023666
     70 C                     0.039431
     71 C                    -0.005478
     72 C                    -0.005502
     73 C                    -0.011031
     74 C                     0.023793
     75 C                    -0.012091
     76 C                     0.029256
     77 C                     0.043455
     78 C                     0.013238
     79 C                     0.015268
     80 C                    -0.011983
     81 C                     0.001418
     82 C                     0.004903
     83 C                    -0.012655
     84 C                    -0.006872
     85 C                     0.028779
     86 C                    -0.010707
     87 C                    -0.005603
     88 C                     0.007461
     89 O                    -0.445329
     90 C                    -0.100159
     91 H                     0.137358
     92 H                     0.114010
     93 H                     0.116668
     94 O                    -0.485760
     95 C                     0.578910
     96 C                    -0.237136
     97 H                     0.122503
     98 H                     0.132987
     99 C                    -0.186597
    100 H                     0.128391
    101 H                     0.126927
    102 C                    -0.180068
    103 H                     0.104589
    104 H                     0.106963
    105 C                    -0.001147
    106 C                     0.088883
    107 C                    -0.104986
    108 H                     0.098722
    109 C                    -0.104605
    110 H                     0.098227
    111 C                    -0.086489
    112 H                     0.090113
    113 C                    -0.096637
    114 H                     0.097410
    115 C                    -0.099508
    116 H                     0.089831
    117 C                    -0.000304
    118 C                    -0.001774
    119 C                    -0.010518
    120 C                     0.000740
    121 C                     0.004086
    122 C                    -0.051544
    123 C                     0.011001
    124 C                     0.026730
    125 C                     0.005993
    126 C                     0.008245
    127 C                    -0.078258
    128 C                    -0.000341
    129 C                    -0.041596
    130 C                    -0.010914
    131 C                     0.004117
    132 C                    -0.005776
    133 C                    -0.092310
    134 C                     0.019395
    135 C                    -0.022463
    136 C                     0.003207
    137 C                     0.010366
    138 C                    -0.023462
    139 C                     0.022053
    140 C                    -0.019071
    141 C                     0.022562
    142 C                    -0.016918
    143 C                    -0.006787
    144 C                     0.020175
    145 C                     0.022764
    146 C                     0.015610
    147 C                     0.002095
    148 C                     0.022944
    149 C                    -0.024852
    150 C                     0.008152
    151 C                     0.007667
    152 C                    -0.015181
    153 C                    -0.016129
    154 C                    -0.017974
    155 C                    -0.011720
    156 C                     0.023591
    157 C                    -0.010305
    158 C                     0.023731
    159 C                    -0.014852
    160 C                     0.006565
    161 C                    -0.024953
    162 C                    -0.009562
    163 C                     0.030962
    164 C                     0.009819
    165 C                    -0.011035
    166 C                    -0.020080
    167 C                     0.006146
    168 C                     0.050400
    169 C                     0.006227
    170 C                     0.011835
    171 C                    -0.005833
    172 C                    -0.003331
    173 C                     0.013612
    174 C                     0.018573
    175 C                     0.008421
    176 C                    -0.011884
  ----------------------------------------
  Sum of atomic charges =     0.000000

 -----------------------------------------------------------------
                    Cartesian Multipole Moments
 -----------------------------------------------------------------
    Charge (ESU x 10^10)
                 0.0000
    Dipole Moment (Debye)
         X       1.8504      Y      -0.4902      Z      -0.1737
       Tot       1.9221
    Quadrupole Moments (Debye-Ang)
        XX    -814.4283     XY     -25.4373     YY    -766.7734
        XZ     -10.7272     YZ     -24.3215     ZZ    -811.9669
    Octopole Moments (Debye-Ang^2)
       XXX     135.9103    XXY     -30.9651    XYY     112.9179
       YYY     -70.7440    XXZ      -7.5063    XYZ     -16.9613
       YYZ      69.4138    XZZ       0.3195    YZZ     -72.1223
       ZZZ      -2.2423
    Hexadecapole Moments (Debye-Ang^3)
      XXXX -114151.3471   XXXY    -412.2448   XXYY  -27085.7801
      XYYY   -1485.2634   YYYY  -50077.1220   XXXZ     158.5016
      XXYZ      76.5200   XYYZ    -132.7261   YYYZ   -1234.5981
      XXZZ  -22473.1652   XYZZ    -467.0115   YYZZ  -12054.3555
      XZZZ     -80.3835   YZZZ    -277.3622   ZZZZ  -20872.8666
 -----------------------------------------------------------------
Archival summary:
1\1\mn251\SP\ProcedureUnspecified\6-31G**\428\afmv_a\FriOct1203:28:382018FriOct1203:28:382018\0\\#,ProcedureUnspecified,6-31G**,\\0,1\C\C,1,1.38747\C,2,1.40399,1,118.9\C,3,1.4068,2,121.96,1,-0.439017,0\C,4,1.40308,3,111.953,2,-141.797,0\C,5,1.38341,4,122.841,3,138.726,0\C,6,1.40691,5,119.829,4,1.36004,0\C,6,1.40803,5,120.933,4,-138.685,0\C,5,1.41306,4,106.257,3,-0.518181,0\C,7,1.41545,6,119.861,5,-1.38924,0\C,10,1.366,7,121.277,6,-138.359,0\C,11,1.40939,10,108.299,7,143.776,0\C,12,1.38033,11,121.563,10,-145.873,0\C,12,1.38371,11,106.17,10,-0.60031,0\C,14,1.37316,12,110.528,11,1.3451,0\C,11,1.41126,10,121.839,7,-1.09034,0\C,16,1.38333,11,118.48,10,136.95,0\C,17,1.38132,16,122.189,11,3.82924,0\C,18,1.39405,17,119.324,16,-137.347,0\C,19,1.36597,18,121.947,17,-5.73227,0\C,19,1.36817,18,106.867,17,139.16,0\C,20,1.37387,19,119.899,18,7.00467,0\C,22,1.36289,20,110.176,19,139.105,0\C,20,1.37531,19,119.318,18,140.289,0\C,21,1.37991,19,111.523,18,1.63396,0\C,25,1.38294,21,122.494,19,-151.188,0\C,16,1.39884,11,116.901,10,4.31464,0\C,27,1.40828,16,122.918,11,-6.61601,0\C,28,1.394,27,121.365,16,138.753,0\C,29,1.40313,28,116.339,27,1.90836,0\C,30,1.37693,29,120.306,28,-141.881,0\C,31,1.37429,30,118.422,29,6.82683,0\C,32,1.36713,31,123.285,30,-10.7547,0\C,33,1.36256,32,105.806,31,146.036,0\C,32,1.38736,31,117.73,30,139.793,0\C,35,1.38451,32,104.157,31,-147.124,0\C,35,1.39762,32,123.635,31,-4.5905,0\C,37,1.38156,35,120.397,32,5.09895,0\C,36,1.40118,35,119.98,32,143.839,0\C,39,1.32687,36,118.567,35,-133.52,0\C,30,1.40212,29,122.043,28,1.92231,0\C,41,1.37585,30,121.916,29,-1.35524,0\C,42,1.40046,41,120.199,30,-137.532,0\C,41,1.40239,30,106.313,29,-145.771,0\C,44,1.39334,41,110.611,30,-3.37129,0\C,40,1.40498,39,110.185,36,139.879,0\C,46,1.38058,40,107.618,39,-4.05339,0\C,47,1.36444,46,106.787,40,3.63908,0\C,47,1.38786,46,122.361,40,-146.871,0\C,49,1.38736,47,120.031,46,135.372,0\C,50,1.38089,49,110.543,47,-138.084,0\C,48,1.40279,47,118.001,46,-145.432,0\C,52,1.33724,48,119.177,47,2.36112,0\C,46,1.40762,40,122.883,39,-152.995,0\C,40,1.41186,39,124.511,36,-9.6296,0\C,53,1.41785,52,112.573,48,140.831,0\C,56,1.3604,53,121.54,52,-140.696,0\C,51,1.42381,50,105.746,49,2.24074,0\C,58,1.45283,51,112.601,50,-10.4731,0\C,54,1.46791,46,121.145,40,143.864,0\C,60,1.53852,54,123.419,46,75.9791,0\C,61,1.52604,60,120.4,54,3.38085,0\C,62,1.37451,61,121.002,60,49.2656,0\H,63,1.08613,62,116.057,61,9.623,0\C,62,1.43316,61,117.128,60,-123.186,0\H,65,1.08667,62,120.743,61,-6.58716,0\C,65,1.398,62,120.442,61,172.574,0\H,67,1.08585,65,125.228,62,169.256,0\C,63,1.43443,62,120.007,61,-170.898,0\H,69,1.08573,63,120.146,62,-175.154,0\C,69,1.41696,63,118.474,62,3.83724,0\H,71,1.08593,69,129.143,63,-175.09,0\C,61,1.54178,60,119.486,54,148.082,0\H,73,1.09674,61,114.889,60,45.4116,0\H,73,1.09683,61,106.38,60,151.851,0\C,73,1.4658,61,115.295,60,-81.7673,0\H,76,1.0972,73,110.589,61,86.059,0\H,76,1.09769,73,110.629,61,-39.6709,0\C,76,1.52396,73,107.709,61,-160.024,0\H,79,1.09663,76,116.572,73,52.1763,0\H,79,1.09708,76,115.587,73,-71.8011,0\C,79,1.50717,76,110.433,73,164.477,0\O,82,1.24245,79,122.481,76,108.532,0\O,82,1.36777,79,112.368,76,-70.38,0\C,84,1.4058,82,116.529,79,178.706,0\H,85,1.0973,84,114.696,82,-31.4294,0\H,85,1.09739,84,112.387,82,-152.53,0\H,85,1.0975,84,114.192,82,82.5306,0\C,86,2.69756,85,125.156,84,-81.7557,0\C,89,1.39544,86,118.84,85,-69.7108,0\C,90,1.37767,89,107.962,86,106.935,0\C,91,1.37722,90,109.717,89,-4.36994,0\C,92,1.36001,91,118.915,90,144.655,0\C,93,1.36332,92,120.803,91,-138.522,0\C,90,1.38797,89,117.135,86,-119.702,0\C,95,1.35112,90,126.164,89,-135.376,0\C,93,1.39722,92,121.033,91,3.48374,0\C,97,1.37201,93,123.712,92,-0.74355,0\C,98,1.38349,97,118.196,93,-131.769,0\C,99,1.3839,98,121.629,97,-10.064,0\C,95,1.39827,90,119.248,89,7.63082,0\C,97,1.39829,93,104.264,92,-147.215,0\C,94,1.40184,93,112.457,92,147.493,0\C,92,1.40457,91,107.557,90,4.87368,0\C,104,1.40899,92,121.553,91,147.962,0\C,105,1.36593,104,116.621,92,-139.527,0\C,105,1.39044,104,117.271,92,-9.5397,0\C,107,1.35237,105,110.542,104,-142.308,0\C,100,1.41016,99,120.911,98,6.71015,0\C,109,1.40943,100,110.524,99,139.121,0\C,110,1.36029,109,123.659,100,-150.144,0\C,111,1.39672,110,116.894,109,13.2847,0\C,98,1.41429,97,113.741,93,-4.24102,0\C,113,1.39766,98,107.892,97,-140.021,0\C,114,1.3646,113,108.142,98,2.60595,0\C,96,1.41484,95,112.46,90,143.637,0\C,116,1.39898,96,105.626,95,3.31386,0\C,117,1.39954,116,116.082,96,-144.614,0\C,118,1.37441,117,123.415,116,-2.83812,0\C,118,1.39782,117,117.139,116,139.789,0\C,119,1.39859,118,104.1,117,138.663,0\C,121,1.38242,119,113.143,118,5.02459,0\C,122,1.38357,121,121.742,119,-147.146,0\C,123,1.37255,122,116.242,121,130.531,0\C,124,1.34615,123,110.819,122,-144.581,0\C,123,1.37611,122,118.213,121,-0.396667,0\C,126,1.36807,123,123.311,122,-2.18595,0\C,125,1.39001,124,121.985,123,154.871,0\C,125,1.40382,124,105.962,123,7.3329,0\C,129,1.38854,125,121.669,124,145.311,0\C,119,1.40389,118,120.718,117,3.88121,0\C,121,1.40919,119,119.675,118,-143.552,0\C,132,1.39548,121,121.806,119,9.44143,0\C,133,1.36279,132,118.801,121,-7.73225,0\C,133,1.38773,132,111.772,121,143.009,0\C,135,1.39495,133,118.349,132,-138.485,0\C,136,1.39874,135,119.612,133,-3.97735,0\C,137,1.37245,136,120.272,135,-3.55722,0\C,112,1.41841,111,111.866,110,135.065,0\C,120,1.41892,118,120.609,117,1.88462,0\C,140,1.40707,120,116.868,118,-133.521,0\C,141,1.40668,140,111.199,120,141.476,0\C,142,1.39864,141,105.679,140,0.160948,0\C,143,1.41567,142,109.781,141,-1.99319,0\C,116,1.42047,96,123.399,95,-145.095,0\C,145,1.3956,116,114.103,96,7.55422,0\C,130,1.51621,129,122.482,125,-147.057,0\C,147,1.4946,130,128.917,129,-69.4963,0\C,148,1.44519,147,117.678,130,-9.02663,0\C,149,1.349,148,120.42,147,-69.9994,0\H,150,1.08615,149,119.799,148,-5.97219,0\C,149,1.41,148,121.811,147,108.949,0\H,152,1.08656,149,113.58,148,10.8601,0\C,152,1.44869,149,119.71,148,177.572,0\H,154,1.08614,152,121.342,149,-169.466,0\C,154,1.35486,152,120.503,149,1.89524,0\H,156,1.08589,154,119.469,152,165.101,0\C,156,1.34915,154,120.877,152,-1.78209,0\H,158,1.08567,156,118.998,154,173.479,0\C,148,1.49784,147,119.859,130,-151.78,0\H,160,1.09687,148,105.725,147,115.512,0\H,160,1.09707,148,112.868,147,-2.41674,0\C,147,1.5102,130,116.599,129,3.15129,0\C,160,1.57561,148,111.234,147,-128.62,0\H,164,1.09694,160,113.606,148,-36.6506,0\H,164,1.09702,160,105.693,148,79.2778,0\C,164,1.5225,160,105.424,148,-160.01,0\H,167,1.09675,164,117.445,160,-68.1913,0\H,167,1.09741,164,105.062,160,178.261,0\C,167,1.50316,164,113.268,160,64.6961,0\O,170,1.23625,167,127.847,164,-106.332,0\O,170,1.35756,167,111.586,164,62.1776,0\C,172,1.42972,170,124.816,167,-175.991,0\H,173,1.09695,172,116.198,170,-69.4506,0\H,173,1.09715,172,112.062,170,50.7452,0\H,173,1.09777,172,112.411,170,163.789,0\\\@

 Total job time:  905.65s(wall), 8710.96s(cpu) 
 Fri Oct 12 03:28:38 2018

        *************************************************************
        *                                                           *
        *  Thank you very much for using Q-Chem.  Have a nice day.  *
        *                                                           *
        *************************************************************


