
Running Job 1 of 1 ./7/12.qcin
qchem ./7/12.qcin_27168.0 /tmpu/cab_g/afmv_a/scratch_qchem/qchem27168/ 1
/tmpu/appuserlic/qchem4.4/serial-multicore/exe/qcprog.exe_s ./7/12.qcin_27168.0 /tmpu/cab_g/afmv_a/scratch_qchem/qchem27168/
Check license passed

                  Welcome to Q-Chem
     A Quantum Leap Into The Future Of Chemistry


 Q-Chem 4.4, Q-Chem, Inc., Pleasanton, CA (2016)

 Y. Shao,  Z. Gan,  E. Epifanovsky,  A. T. B. Gilbert,  M. Wormit,  
 J. Kussmann,  A. W. Lange,  A. Behn,  J. Deng,  X. Feng,  D. Ghosh,  
 M. Goldey,  P. R. Horn,  L. D. Jacobson,  I. Kaliman,  F. Rob,  
 R. Z. Khaliullin,  T. Kus,  A. Landau,  J. Liu,  E. I. Proynov,  Y. M. Rhee,  
 R. M. Richard,  M. A. Rohrdanz,  R. P. Steele,  E. J. Sundstrom,  
 H. L. Woodcock III,  P. M. Zimmerman,  D. Zuev,  B. Albrecht,  E. Alguire,  
 B. Austin,  S. A. Baeppler,  G. J. O. Beran,  Y. A. Bernard,  E. Berquist,  
 K. Brandhorst,  K. B. Bravaya,  S. T. Brown,  D. Casanova,  C.-M. Chang,  
 Y. Chen,  S. H. Chien,  K. D. Closser,  M. P. Coons,  D. L. Crittenden,  
 S. Dasgupta,  M. Diedenhofen,  R. A. DiStasio Jr.,  H. Do,  A. D. Dutoi,  
 R. G. Edgar,  P.-T. Fang,  S. Fatehi,  Q. Feng,  L. Fusti-Molnar,  
 A. Ghysels,  A. Golubeva-Zadorozhnaya,  J. Gomes,  A. Gunina,  
 M. W. D. Hanson-Heine,  P. H. P. Harbach,  A. W. Hauser,  J. E. Herr,  
 E. G. Hohenstein,  Z. C. Holden,  K. Hui,  T.-C. Jagau,  H. Ji,  B. Kaduk,  
 K. Khistyaev,  Jaehoon Kim,  Jihan Kim,  R. A. King,  P. Klunzinger,  
 K. Koh,  D. Kosenkov,  T. Kowalczyk,  C. M. Krauter,  A. Kunitsa,  
 K. U. Lao,  A. Laurent,  K. V. Lawler,  J. Lee,  D. Lefrancois,  S. Lehtola,  
 S. V. Levchenko,  C. Y. Lin,  Y.-S. Lin,  F. Liu,  E. Livshits,  
 R. C. Lochan,  A. Luenser,  P. Manohar,  S. F. Manzer,  S.-P. Mao,  Y. Mao,  
 N. Mardirossian,  A. V. Marenich,  L. A. Martinez-Martinez,  S. A. Maurer,  
 N. J. Mayhall,  J.-M. Mewes,  A. F. Morrison,  K. Nanda,  T. S. Nguyen-Beck,  
 C. M. Oana,  R. Olivares-Amaya,  D. P. O'Neill,  J. A. Parkhill,  
 T. M. Perrine,  R. Peverati,  P. A. Pieniazek,  F. Plasser,  A. Prociuk,  
 D. R. Rehn,  E. Rosta,  N. J. Russ,  N. Sergueev,  S. M. Sharada,  
 S. Sharma,  D. W. Small,  A. Sodt,  T. Stauch,  T. Stein,  D. Stuck,  
 Y.-C. Su,  A. J. W. Thom,  T. Tsuchimochi,  L. Vogt,  O. Vydrov,  T. Wang,  
 M. A. Watson,  J. Wenzel,  A. White,  C. F. Williams,  V. Vanovschi,  
 K. Yao,  S. Yeganeh,  S. R. Yost,  Z.-Q. You,  I. Y. Zhang,  X. Zhang,  
 Y. Zhao,  B. R. Brooks,  G. K. L. Chan,  D. M. Chipman,  C. J. Cramer,  
 W. A. Goddard III,  M. S. Gordon,  W. J. Hehre,  A. Klamt,  
 H. F. Schaefer III,  M. W. Schmidt,  C. D. Sherrill,  D. G. Truhlar,  
 A. Warshel,  X. Xu,  A. Aspuru-Guzik,  R. Baer,  A. T. Bell,  N. A. Besley,  
 J.-D. Chai,  A. Dreuw,  B. D. Dunietz,  T. R. Furlani,  S. R. Gwaltney,  
 C.-P. Hsu,  Y. Jung,  J. Kong,  D. S. Lambrecht,  W. Liang,  C. Ochsenfeld,  
 V. A. Rassolov,  L. V. Slipchenko,  J. E. Subotnik,  T. Van Voorhis,  
 J. M. Herbert,  A. I. Krylov,  P. M. W. Gill,  M. Head-Gordon

 Contributors to earlier versions of Q-Chem not listed above: 
 R. D. Adamson,  J. Baker,  E. F. C. Byrd,  A. K. Chakraborty,  C.-L. Cheng,  
 H. Dachsel,  R. J. Doerksen,  G. Hawkins,  A. Heyden,  S. Hirata,  
 G. Kedziora,  F. J. Keil,  C. Kelley,  P. P. Korambath,  W. Kurlancheek,  
 A. M. Lee,  M. S. Lee,  D. Liotard,  I. Lotan,  P. E. Maslen,  N. Nair,  
 D. Neuhauser,  R. Olson,  B. Peters,  J. Ritchie,  N. E. Schultz,  
 N. Shenvi,  A. C. Simmonett,  K. S. Thanthiriwatte,  Q. Wu,  W. Zhang

 Please cite Q-Chem as follows:
 Y. Shao et al., Mol. Phys. 113, 184-215 (2015)
 DOI: 10.1080/00268976.2014.952696

 Q-Chem 4.4.2 for Intel X86 Linux

 Parts of Q-Chem use Armadillo 5.200.1 (Boston Tea Smuggler).
 http://arma.sourceforge.net/

 Q-Chem begins on Fri Oct 12 03:43:32 2018  

Host: 
0

     Scratch files written to /tmpu/cab_g/afmv_a/scratch_qchem/qchem27168//
 Dec716 11556_ 22328  22283 4050   
Processing $rem in /tmpu/appuserlic/qchem4.4/serial-multicore/config/preferences.
 MEM_TOTAL  2000 
FILE_GEOM_ORG=        593

Checking the input file for inconsistencies... 	...done.

--------------------------------------------------------------
User input:
--------------------------------------------------------------
$comment
SP
$end

$rem
MEM_STATIC 5000
MEM_TOTAL 20000
JOBTYPE SP
EXCHANGE B3LYP
BASIS 6-31g(d,p)
$end

$molecule
0 1
O         -10.473000    -12.711000    -10.079000
C          -9.621000    -13.914000    -10.200000
H          -8.962000    -14.009000     -9.328000
H          -8.949000    -13.826000    -11.062000
H         -10.234000    -14.812000    -10.339000
O         -11.648000    -13.108000    -12.037000
C         -11.455000    -12.421000    -11.061000
C         -12.283000    -11.208000    -10.761000
H         -11.685000    -10.395000    -10.331000
H         -13.022000    -11.638000    -10.073000
C         -13.030000    -10.619000    -11.976000
H         -12.254000    -10.089000    -12.542000
H         -13.358000    -11.419000    -12.651000
C         -13.994000     -9.516000    -11.676000
H         -13.522000     -8.786000    -11.007000
H         -14.245000     -9.077000    -12.649000
C         -15.284000     -9.988000    -10.930000
C         -15.993000    -11.132000    -11.699000
C         -17.080000    -10.791000    -12.519000
H         -17.587000     -9.835000    -12.432000
C         -17.689000    -11.760000    -13.310000
H         -18.578000    -11.470000    -13.862000
C         -17.121000    -13.090000    -13.355000
H         -17.557000    -13.864000    -13.980000
C         -15.954000    -13.410000    -12.637000
H         -15.576000    -14.423000    -12.735000
C         -15.545000    -12.438000    -11.754000
H         -14.638000    -12.676000    -11.207000
C         -19.928000     -8.356000     -8.439000
C         -19.512000    -10.544000     -7.576000
C         -18.322000     -9.131000     -3.361000
C         -15.877000     -5.298000     -7.880000
C         -14.859000     -9.309000     -4.051000
C         -19.475000     -9.686000     -8.671000
C         -14.607000     -5.981000     -5.532000
C         -20.067000     -8.385000     -4.917000
C         -15.571000    -11.308000     -7.449000
C         -14.761000     -6.097000     -7.946000
C         -15.420000     -9.936000     -9.429000
C         -14.511000    -10.414000     -7.330000
C         -13.621000     -7.769000     -6.915000
C         -14.642000     -6.889000     -4.459000
C         -17.539000    -10.985000     -8.694000
C         -16.507000     -7.766000     -3.151000
C         -16.118000     -8.893000    -10.181000
C         -15.779000     -7.472000     -9.694000
C         -15.977000     -9.113000     -3.265000
C         -18.520000     -5.262000     -5.580000
C         -18.559000     -6.828000     -3.840000
C         -19.691000     -7.071000     -4.643000
C         -20.449000     -8.777000     -6.157000
C         -16.991000     -6.743000     -9.537000
C         -16.129000    -11.070000     -8.735000
C         -19.917000    -10.080000     -6.279000
C         -14.102000     -6.482000     -6.779000
C         -18.327000    -11.308000     -7.608000
C         -14.073000    -10.029000     -6.017000
C         -18.166000     -5.288000     -8.041000
C         -19.401000     -9.437000     -4.227000
C         -14.374000     -9.551000     -8.435000
C         -20.030000     -6.546000     -7.017000
C         -13.652000     -8.675000     -5.843000
C         -16.268000    -11.658000     -6.283000
C         -16.517000     -5.584000     -4.378000
C         -15.742000     -5.198000     -5.467000
C         -15.918000    -11.301000     -5.027000
C         -16.976000     -5.623000     -8.708000
C         -14.678000     -7.160000     -8.830000
C         -17.827000     -4.840000     -6.760000
C         -17.647000     -8.894000    -10.014000
C         -18.212000    -11.313000     -5.147000
C         -13.963000     -8.242000     -8.213000
C         -14.822000    -10.404000     -4.871000
C         -19.274000     -6.196000     -8.155000
C         -17.129000     -9.937000     -3.537000
C         -20.451000     -7.868000     -7.253000
C         -17.902000     -7.849000     -3.170000
C         -17.656000    -11.664000     -6.400000
C         -17.104000    -11.100000     -4.277000
C         -18.267000     -9.939000     -9.341000
C         -18.090000     -7.579000     -9.753000
C         -17.876000     -5.726000     -4.415000
C         -19.362000    -10.524000     -5.088000
C         -14.139000     -8.247000     -4.603000
C         -16.430000     -4.867000     -6.649000
C         -15.810000     -6.699000     -3.761000
C         -19.257000     -7.306000     -9.030000
C         -19.627000     -6.131000     -5.723000
O         -17.472000    -13.779000      0.371000
C         -18.881000    -14.181000      0.194000
H         -18.995000    -14.707000     -0.761000
H         -19.585000    -13.340000      0.203000
H         -19.273000    -14.880000      0.943000
O         -16.987000    -13.584000     -1.859000
C         -16.731000    -13.407000     -0.710000
C         -15.448000    -12.852000     -0.111000
H         -15.070000    -13.580000      0.618000
H         -15.716000    -11.910000      0.383000
C         -14.477000    -12.543000     -1.249000
H         -14.322000    -13.378000     -1.942000
H         -14.932000    -11.758000     -1.866000
C         -13.173000    -11.940000     -0.725000
H         -13.119000    -11.035000     -1.343000
H         -13.309000    -11.585000      0.305000
C         -11.771000    -12.652000     -0.760000
C         -11.704000    -13.788000      0.205000
C         -10.995000    -13.557000      1.439000
H         -10.573000    -12.583000      1.667000
C         -10.773000    -14.622000      2.367000
H         -10.293000    -14.596000      3.341000
C         -11.079000    -15.930000      1.935000
H         -10.926000    -16.725000      2.658000
C         -11.819000    -16.114000      0.784000
H         -12.206000    -17.119000      0.646000
C         -12.132000    -15.097000     -0.162000
H         -12.687000    -15.328000     -1.067000
C          -6.338000    -12.582000     -1.149000
C          -6.913000    -14.391000     -2.603000
C          -5.973000    -12.193000     -6.539000
C          -8.840000     -8.351000     -2.458000
C          -9.365000    -11.360000     -7.113000
C          -7.171000    -13.660000     -1.442000
C          -9.308000     -8.383000     -5.218000
C          -4.726000    -12.298000     -4.458000
C         -10.585000    -13.827000     -4.138000
C         -10.158000     -8.659000     -2.951000
C         -11.188000    -12.648000     -2.136000
C         -11.217000    -12.633000     -4.440000
C         -11.209000     -9.820000     -4.583000
C          -9.093000     -9.111000     -6.394000
C          -9.149000    -14.258000     -2.255000
C          -7.162000    -10.330000     -7.090000
C         -10.499000    -11.910000     -1.026000
C         -10.296000    -10.409000     -1.161000
C          -8.002000    -11.408000     -7.396000
C          -5.532000     -8.878000     -3.602000
C          -5.327000    -10.059000     -5.438000
C          -4.648000    -10.826000     -4.438000
C          -5.034000    -12.995000     -3.214000
C          -8.992000    -10.083000     -0.774000
C         -10.406000    -13.819000     -2.743000
C          -5.869000    -14.092000     -3.506000
C         -10.334000     -8.759000     -4.303000
C          -8.183000    -14.776000     -3.117000
C         -10.965000    -11.959000     -5.693000
C          -6.875000     -9.065000     -1.548000
C          -5.439000    -12.948000     -5.449000
C         -11.604000    -11.890000     -3.371000
C          -5.178000    -10.770000     -2.055000
C         -10.930000    -10.589000     -5.780000
C          -9.581000    -14.257000     -5.030000
C          -7.052000     -8.498000     -5.526000
C          -8.060000     -8.052000     -4.666000
C          -9.324000    -13.593000     -6.209000
C          -8.280000     -9.042000     -1.409000
C         -10.776000     -9.774000     -2.324000
C          -6.586000     -8.419000     -2.746000
C          -9.146000    -12.412000     -0.688000
C          -7.388000    -14.425000     -5.404000
C         -11.452000    -10.479000     -3.378000
C         -10.031000    -12.461000     -6.548000
C          -6.182000    -10.265000     -1.227000
C          -7.241000    -12.547000     -7.032000
C          -5.299000    -12.179000     -2.102000
C          -5.958000    -10.800000     -6.494000
C          -8.406000    -14.704000     -4.482000
C          -7.966000    -13.689000     -6.473000
C          -8.567000    -13.579000     -1.202000
C          -8.305000    -11.301000     -0.480000
C          -5.800000     -8.869000     -4.991000
C          -6.100000    -14.124000     -4.943000
C          -9.909000    -10.182000     -6.678000
C          -7.804000     -8.018000     -3.329000
C          -7.719000     -9.204000     -6.547000
C          -6.891000    -11.356000     -0.770000
C          -4.861000    -10.087000     -3.235000
$end

--------------------------------------------------------------
 ----------------------------------------------------------------
             Standard Nuclear Orientation (Angstroms)
    I     Atom           X                Y                Z
 ----------------------------------------------------------------
    1      O      -0.7312660455    -5.1790935952    -2.3962751831
    2      C      -1.7685563654    -5.6059021616    -3.3604417869
    3      H      -2.7283905672    -5.1263003146    -3.1315523516
    4      H      -1.9557585060    -6.6829067806    -3.2744859310
    5      H      -1.4519258918    -5.3984318364    -4.3891279428
    6      O       0.9811820079    -6.3598809967    -3.4186551404
    7      C       0.6096892846    -5.6203603023    -2.5372379298
    8      C       1.5540984238    -5.0460727295    -1.5246974805
    9      H       1.1026365385    -4.9833558026    -0.5268388968
   10      H       1.7701416687    -4.0734584113    -1.9848188824
   11      C       2.8806154168    -5.8185661277    -1.3673392365
   12      H       2.6113039959    -6.7054193320    -0.7804876773
   13      H       3.2075862368    -6.2227133779    -2.3332398955
   14      C       3.9088529219    -5.1759770711    -0.4922895593
   15      H       3.4401596417    -4.8387801217     0.4403785631
   16      H       4.6638484718    -5.9509972848    -0.3140302314
   17      C       4.5602440535    -3.8982833095    -1.1140517688
   18      C       5.1509298435    -4.1925229646    -2.5166533954
   19      C       6.5289150350    -4.4449629240    -2.6042940195
   20      H       7.2113220218    -4.1914383776    -1.7989369505
   21      C       7.0952213762    -4.8143649589    -3.8201732341
   22      H       8.1756121995    -4.9160855905    -3.8593342107
   23      C       6.2315802242    -5.0369313571    -4.9595314565
   24      H       6.6378202008    -5.3489312860    -5.9173530087
   25      C       4.8341801811    -4.9127601561    -4.8515146417
   26      H       4.2499995349    -5.1139851171    -5.7442063509
   27      C       4.4014834330    -4.3706510311    -3.6638087770
   28      H       3.3232417593    -4.2845595160    -3.5716939349
   29      C       7.9783402883     0.3374467400    -0.2138017604
   30      C       6.6077593223     1.0398974774    -2.0395179972
   31      C       4.2354850199     4.1602806334     0.3717923507
   32      C       5.1812187403    -1.1879774377     3.7766415889
   33      C       1.5047325477     1.9791386503     0.9063609474
   34      C       7.2919132352     0.0012007636    -1.4153380870
   35      C       2.9019487916     0.3578776194     3.8646963641
   36      C       6.6074900933     3.5307961379     0.3760587021
   37      C       2.9493304916    -0.5998230827    -1.7976069075
   38      C       4.0147466450    -1.7094466303     3.2710471547
   39      C       4.0609572973    -2.5060507750    -0.8197690734
   40      C       2.2568157593    -1.0285766647    -0.6690721444
   41      C       2.1065353180    -1.2173866448     2.1419982176
   42      C       2.2104558385     1.3789903832     3.1892822545
   43      C       5.2557846752    -0.8271549285    -2.1925339018
   44      C       2.9977669316     3.4411945585     2.1473258340
   45      C       5.2858339232    -2.9156779954    -0.1324265157
   46      C       5.2132943629    -2.7191592038     1.3931715233
   47      C       2.1906568986     3.1756368624     0.9698889972
   48      C       6.4897622489     2.0575869405     3.6012256459
   49      C       5.3253615333     3.7107199184     2.4210564500
   50      C       6.5609878790     3.5273968329     1.7692112382
   51      C       7.3397864373     2.6260078344    -0.3184110167
   52      C       6.4029403221    -2.0690874751     1.8258183067
   53      C       4.0392812896    -1.5013913151    -1.9424722935
   54      C       6.5474198215     2.3499083291    -1.4549149583
   55      C       2.8445424599    -0.9511804790     3.2780905272
   56      C       5.3782643470     0.5151688204    -2.4889030684
   57      C       1.4437373153    -0.0840718540     0.0456670433
   58      C       7.2137222053    -0.2882002120     3.2066656168
   59      C       5.4334385240     3.9004557787    -0.3390039963
   60      C       2.8609574397    -2.1220237524    -0.0179582555
   61      C       8.0062553375     1.5431512018     1.7493807326
   62      C       1.4126298475    -0.1991001012     1.4692659432
   63      C       2.9521355052     0.7736287524    -2.0830665170
   64      C       4.1716943020     2.2307143064     3.9975650316
   65      C       4.0803646381     0.8880369860     4.3502951066
   66      C       2.2301208189     1.7092226910    -1.4266796075
   67      C       6.3746769793    -1.4038434226     3.0499578143
   68      C       3.9991121028    -2.4714829112     2.1145998936
   69      C       6.5176983572     0.6693923962     3.9517516518
   70      C       6.5257415749    -2.0703495566    -0.4697391984
   71      C       4.2431186266     2.6489583884    -2.0112449549
   72      C       2.8048414861    -2.1872773260     1.3692255719
   73      C       1.4920824083     1.2967520531    -0.2798019866
   74      C       7.9411069668     0.1676767144     2.0541849719
   75      C       3.0472023083     3.5064107494    -0.1423081961
   76      C       8.0729619820     1.6012735963     0.3448192313
   77      C       4.1766599331     4.0649388331     1.7296784100
   78      C       4.1891601536     1.3027186359    -2.4437643327
   79      C       2.9909546799     2.9044532091    -1.3813712792
   80      C       6.4631028275    -1.1300162860    -1.4901331065
   81      C       7.1869371972    -1.7120426022     0.7252635109
   82      C       5.3097477498     2.8254462518     3.5290116590
   83      C       5.4386993514     3.1802813615    -1.5246397466
   84      C       1.4358312438     1.0997239818     1.9893339163
   85      C       5.2656642084     0.1327641396     4.2820539444
   86      C       2.9744606136     2.5204596821     3.2188210990
   87      C       7.9642675873    -0.5535854062     0.8387597216
   88      C       7.2400922712     2.4850120122     2.4807919505
   89      O       0.5542359820     7.3543616638    -3.1638094217
   90      C       1.7166602226     7.8624495985    -3.9180179708
   91      H       2.0595201051     7.0963354685    -4.6231514623
   92      H       2.5664952288     8.1430855298    -3.2839817445
   93      H       1.5296026681     8.7465118175    -4.5398776530
   94      O       1.1345237472     5.1413636758    -3.2736093075
   95      C       0.4845157024     6.0350909851    -2.8311084165
   96      C      -0.7018849886     5.9504883185    -1.8833685845
   97      H      -1.5490963718     6.4674741074    -2.3516287326
   98      H      -0.3996654066     6.4573843386    -0.9587369016
   99      C      -0.9635014012     4.4793663816    -1.5659995572
  100      H      -1.0533346448     3.8410816135    -2.4525781173
  101      H      -0.0804424875     4.0936891134    -1.0412148397
  102      C      -2.1220723911     4.3158209164    -0.5813335518
  103      H      -1.6391291546     3.6903621002     0.1798708225
  104      H      -2.3330953001     5.2723157458    -0.0853416433
  105      C      -3.5208144384     3.6865328769    -0.9296010472
  106      C      -4.3221469804     4.5783053840    -1.8177552864
  107      C      -5.3800860071     5.3379505620    -1.1992876484
  108      H      -5.5478365859     5.2922321533    -0.1276003944
  109      C      -6.2775738011     6.1221343525    -1.9893917190
  110      H      -7.0908903273     6.7669835281    -1.6693327103
  111      C      -6.2228256830     5.9529430245    -3.3892134713
  112      H      -6.8946115474     6.5710012603    -3.9764704590
  113      C      -5.1592421351     5.2784541914    -3.9549977504
  114      H      -5.0685670779     5.3899379315    -5.0311889089
  115      C      -4.1904740374     4.5225151808    -3.2358186451
  116      H      -3.4028996289     3.9849008054    -3.7564992903
  117      C      -7.9927810008     0.8605672885     0.3700695104
  118      C      -7.4267093968    -0.0650325797    -1.7606697565
  119      C      -5.9228237245    -4.1156537029    -0.1676548788
  120      C      -4.0388648018     0.5955816537     3.5592975212
  121      C      -2.5263811792    -3.1271694516    -0.2945639837
  122      C      -7.4763860860     1.0418568131    -0.9114500565
  123      C      -2.4864272376    -1.6407624789     2.9063422932
  124      C      -7.8980901579    -2.8296322182     0.4163539037
  125      C      -3.4661378373     0.2129283838    -2.3887745446
  126      C      -2.7935526869     0.7761186046     2.8581262541
  127      C      -3.4405451667     2.1983673330    -1.0400598993
  128      C      -2.4421651783     0.1642554427    -1.4585192364
  129      C      -1.5518332184    -0.1277957727     1.1976993331
  130      C      -2.3926952677    -2.7415474168     2.0468820915
  131      C      -5.6171152417     1.2556361784    -2.1066351093
  132      C      -4.1176699182    -4.1699891084     1.2203503083
  133      C      -4.2783245438     2.8279010835     0.0338479051
  134      C      -3.9488858674     2.5293447949     1.4880725442
  135      C      -3.5898077839    -3.9970558174    -0.0652529135
  136      C      -6.5496698620    -1.8981404467     3.6401494594
  137      C      -6.3045671699    -3.5546059076     2.2246181644
  138      C      -7.5353411957    -2.9318732874     1.8415654508
  139      C      -8.3647425340    -1.5443017447    -0.0919473197
  140      C      -5.1322594430     2.2600046921     2.1834457457
  141      C      -4.2039077910     1.3699524963    -2.0803581075
  142      C      -7.8527077813    -1.3601222944    -1.3918689874
  143      C      -2.1038154326    -0.3388010194     2.4707030334
  144      C      -6.2366158823     0.0793903193    -2.5275729140
  145      C      -1.9305759538    -1.1022239805    -0.9872493181
  146      C      -6.3181937407     0.5491582494     3.5189805791
  147      C      -7.0636072198    -3.3475764892    -0.5574643331
  148      C      -2.3390151509     1.2475395186    -0.6458479111
  149      C      -8.0667248715    -0.5768658141     2.2080298961
  150      C      -1.5163205737    -1.2740531713     0.3106571536
  151      C      -4.0794033012    -1.0123338702    -2.7222679921
  152      C      -4.3246304696    -2.9360512022     3.2816568294
  153      C      -3.6897165760    -1.7383068487     3.6235234865
  154      C      -3.6061993822    -2.2147899996    -2.2456514713
  155      C      -5.1656432929     1.3117186893     3.2291460735
  156      C      -2.8593873263     1.6786979788     1.7630033050
  157      C      -5.8697804809    -0.6837274519     3.9826177173
  158      C      -5.7294662563     2.5402074979    -0.0571308340
  159      C      -5.8516229449    -2.3344884946    -2.4247891126
  160      C      -2.0464837650     1.0910859617     0.7340150070
  161      C      -2.5208338630    -2.2585842200    -1.3993313451
  162      C      -7.4042238536     0.5872471244     2.6011691434
  163      C      -4.7340524949    -3.9552682536    -0.9006545181
  164      C      -8.3625176196    -0.4826213315     0.8275388141
  165      C      -5.5401023696    -4.1624405365     1.1717607985
  166      C      -5.4499482806    -1.0355210860    -2.7647746059
  167      C      -4.6876150692    -3.0627671562    -2.0597728713
  168      C      -6.3567711437     1.8866980416    -1.1251851251
  169      C      -6.2071471214     2.2778790774     1.2420499813
  170      C      -5.7330865713    -3.0102432162     3.3276672048
  171      C      -7.0598469916    -2.5293726520    -1.7434075617
  172      C      -1.8925728417    -2.5604142910     0.7777795150
  173      C      -4.4613487774    -0.6693890289     3.9644918726
  174      C      -3.5336178057    -3.4983967433     2.2599756374
  175      C      -7.3134225449     1.3789303003     1.4756453225
  176      C      -7.6388702943    -1.8086490025     2.7169784570
 ----------------------------------------------------------------
 Molecular Point Group                 C1    NOp =  1
 Largest Abelian Subgroup              C1    NOp =  1
 Nuclear Repulsion Energy = 35379.4479678655 hartrees
 There are      462 alpha and      462 beta electrons
 Requested basis set is 6-31G(d,p)
 There are 676 shells and 2360 basis functions

 Total QAlloc Memory Limit  20000 MB
 Mega-Array Size      4888 MB
 MEM_STATIC part      5000 MB
 A cutoff of  1.0D-08 yielded  38273 shell pairs
 There are    535690 function pairs
 
 -------------------------------------------------------
 OpenMP Integral Computing Module                       
 Release: version 1.0, May 2013, Q-Chem Inc. Pittsburgh 
 -------------------------------------------------------
 Integral Job Info:
 Integral job number is                      11
 Integral operator is                         1
 short-range coefficients                     0
 long-range coefficients              100000000
 Omega coefficients                           0
 if combine SR and LR in K                    0
 Integral screening is                        0
 Integral computing path is                   2
 max size of driver memory is            800000
 size of driver memory is                593474
 size of scratch memory is              2260544
 max col of scratch BK array               1296
 max len of scratch array in speh3          155
 max len of scratch index in speh4           18
 max int batch size is                      520
 min int batch size is                       52
 fixed nKL is                                52
 max L of basis functions is                  2
 order of int derivative is                   0
 number of shells is                        676
 number of basis is                        2360
 number of cartesian basis is              2360
 number of contracted shell pairs         38273
 number of primitive shell pairs         115239
 maxK2 (contraction) of shell pair           36
 max number of K2 of shell pair               1
 max number of CS2 of shell pair           7265
 max number of PS2 of shell pair          34914
 mem total for path MDJ                 1517352
 -------------------------------------------------------
 Smallest overlap matrix eigenvalue = 2.63E-04

 Scale SEOQF with 1.000000e-02/1.000000e-02/1.000000e-02

 Standard Electronic Orientation quadrupole field applied
 Nucleus-field energy     =     0.0000000946 hartrees
 Guess from superposition of atomic densities
 Warning:  Energy on first SCF cycle will be non-variational
 A restricted hybrid HF-DFT SCF calculation will be
 performed using Pulay DIIS extrapolation
 Exchange:     0.2000 Hartree-Fock + 0.0800 Slater + 0.7200 B88
 Correlation:  0.1900 VWN1RPA + 0.8100 LYP
 Using SG-1 standard quadrature grid
 SCF converges when DIIS error is below 1.0E-05
 using 16 threads for integral computing 
 -------------------------------------------------------
 OpenMP BLAS3 based DFT computing Module                
 Release: version 1.0, May 2013, Q-Chem Inc. Pittsburgh 
 -------------------------------------------------------
 ---------------------------------------
  Cycle       Energy         DIIS Error
 ---------------------------------------
    1   -5858.0920844846      1.83E-02
    2   -5803.1124078235      1.28E-03
    3   -5802.4157629707      1.74E-03
    4   -5803.9782236194      6.17E-04
    5   -5804.1878172970      2.81E-04
    6   -5804.2399227476      1.07E-04
    7   -5804.2468807789      4.04E-05
    8   -5804.2475729442      2.32E-05
    9   -5804.2479289831      8.45E-06 Convergence criterion met
 ---------------------------------------
 SCF time:  CPU 8267.10 s  wall 849.58 s
 SCF   energy in the final basis set = -5804.2479289831
 Total energy in the final basis set = -5804.2479289831
 
 --------------------------------------------------------------
 
                    Orbital Energies (a.u.)
 --------------------------------------------------------------
 
 Alpha MOs
 -- Occupied --
-19.191 -19.184 -19.145 -19.140 -10.319 -10.316 -10.247 -10.242
-10.242 -10.241 -10.238 -10.236 -10.235 -10.233 -10.233 -10.227
-10.226 -10.224 -10.224 -10.224 -10.223 -10.222 -10.222 -10.222
-10.222 -10.221 -10.221 -10.221 -10.221 -10.221 -10.221 -10.221
-10.221 -10.221 -10.220 -10.220 -10.219 -10.219 -10.219 -10.219
-10.218 -10.218 -10.218 -10.218 -10.218 -10.218 -10.218 -10.218
-10.217 -10.217 -10.217 -10.217 -10.217 -10.216 -10.216 -10.216
-10.216 -10.216 -10.216 -10.216 -10.216 -10.216 -10.216 -10.216
-10.215 -10.215 -10.215 -10.215 -10.215 -10.214 -10.214 -10.214
-10.214 -10.214 -10.214 -10.214 -10.214 -10.213 -10.213 -10.213
-10.213 -10.213 -10.213 -10.213 -10.213 -10.213 -10.213 -10.213
-10.212 -10.212 -10.212 -10.212 -10.212 -10.212 -10.212 -10.212
-10.211 -10.211 -10.211 -10.211 -10.211 -10.211 -10.211 -10.211
-10.210 -10.210 -10.210 -10.210 -10.210 -10.209 -10.209 -10.209
-10.209 -10.209 -10.209 -10.209 -10.209 -10.209 -10.209 -10.209
-10.208 -10.208 -10.208 -10.207 -10.207 -10.207 -10.207 -10.207
-10.207 -10.207 -10.206 -10.206 -10.205 -10.205 -10.204 -10.203
-10.203 -10.200 -10.199 -10.198 -10.197 -10.196 -10.196 -10.195
-10.193 -10.193 -10.191 -10.188  -1.096  -1.076  -1.022  -1.004
 -0.982  -0.981  -0.965  -0.963  -0.962  -0.962  -0.960  -0.957
 -0.934  -0.931  -0.926  -0.926  -0.926  -0.924  -0.923  -0.919
 -0.918  -0.916  -0.897  -0.894  -0.890  -0.890  -0.886  -0.880
 -0.871  -0.871  -0.853  -0.848  -0.843  -0.841  -0.837  -0.836
 -0.835  -0.834  -0.821  -0.816  -0.808  -0.806  -0.800  -0.799
 -0.795  -0.795  -0.793  -0.790  -0.789  -0.788  -0.783  -0.780
 -0.771  -0.770  -0.769  -0.766  -0.764  -0.763  -0.761  -0.759
 -0.751  -0.745  -0.744  -0.739  -0.732  -0.731  -0.715  -0.714
 -0.714  -0.713  -0.713  -0.712  -0.709  -0.709  -0.709  -0.707
 -0.707  -0.705  -0.704  -0.702  -0.700  -0.699  -0.672  -0.670
 -0.659  -0.657  -0.655  -0.654  -0.648  -0.645  -0.630  -0.630
 -0.626  -0.626  -0.623  -0.623  -0.621  -0.620  -0.617  -0.617
 -0.614  -0.612  -0.612  -0.611  -0.609  -0.607  -0.606  -0.605
 -0.605  -0.604  -0.601  -0.600  -0.566  -0.562  -0.561  -0.560
 -0.558  -0.557  -0.557  -0.556  -0.556  -0.553  -0.549  -0.547
 -0.536  -0.533  -0.532  -0.529  -0.528  -0.526  -0.526  -0.523
 -0.522  -0.522  -0.519  -0.518  -0.515  -0.514  -0.513  -0.512
 -0.505  -0.502  -0.501  -0.496  -0.495  -0.488  -0.487  -0.486
 -0.484  -0.483  -0.481  -0.479  -0.479  -0.477  -0.476  -0.473
 -0.473  -0.470  -0.469  -0.468  -0.468  -0.466  -0.466  -0.464
 -0.464  -0.463  -0.462  -0.462  -0.461  -0.460  -0.457  -0.456
 -0.455  -0.452  -0.452  -0.448  -0.444  -0.444  -0.442  -0.442
 -0.441  -0.441  -0.439  -0.439  -0.438  -0.436  -0.434  -0.432
 -0.431  -0.431  -0.427  -0.427  -0.426  -0.425  -0.424  -0.424
 -0.423  -0.422  -0.422  -0.421  -0.420  -0.419  -0.419  -0.417
 -0.416  -0.416  -0.416  -0.415  -0.414  -0.413  -0.412  -0.412
 -0.410  -0.409  -0.408  -0.405  -0.403  -0.398  -0.398  -0.396
 -0.393  -0.392  -0.390  -0.389  -0.386  -0.386  -0.385  -0.384
 -0.378  -0.377  -0.372  -0.372  -0.368  -0.367  -0.365  -0.364
 -0.363  -0.362  -0.361  -0.361  -0.359  -0.359  -0.359  -0.356
 -0.356  -0.355  -0.355  -0.352  -0.352  -0.351  -0.350  -0.349
 -0.349  -0.348  -0.347  -0.346  -0.345  -0.343  -0.342  -0.342
 -0.341  -0.341  -0.340  -0.338  -0.336  -0.335  -0.333  -0.332
 -0.331  -0.330  -0.329  -0.329  -0.325  -0.323  -0.321  -0.317
 -0.304  -0.303  -0.302  -0.295  -0.288  -0.283  -0.278  -0.274
 -0.271  -0.270  -0.269  -0.267  -0.266  -0.264  -0.263  -0.263
 -0.261  -0.261  -0.259  -0.258  -0.257  -0.254  -0.253  -0.251
 -0.249  -0.245  -0.244  -0.243  -0.220  -0.218  -0.213  -0.212
 -0.209  -0.208  -0.205  -0.203  -0.200  -0.197
 -- Virtual --
 -0.123  -0.122  -0.120  -0.116  -0.111  -0.104  -0.080  -0.079
 -0.072  -0.071  -0.060  -0.058  -0.052  -0.050  -0.025  -0.024
 -0.021  -0.019  -0.018  -0.016  -0.015  -0.015  -0.014  -0.012
 -0.012  -0.011  -0.009  -0.008  -0.005  -0.004   0.004   0.009
  0.012   0.013   0.035   0.038   0.040   0.043   0.045   0.047
  0.051   0.051   0.052   0.059   0.060   0.063   0.065   0.066
  0.067   0.069   0.074   0.078   0.081   0.086   0.089   0.091
  0.093   0.094   0.096   0.097   0.098   0.100   0.100   0.101
  0.107   0.110   0.111   0.111   0.114   0.115   0.116   0.117
  0.120   0.122   0.123   0.124   0.127   0.130   0.135   0.136
  0.137   0.140   0.142   0.147   0.148   0.149   0.154   0.155
  0.156   0.157   0.159   0.162   0.165   0.168   0.170   0.172
  0.173   0.175   0.177   0.178   0.179   0.180   0.181   0.184
  0.184   0.185   0.186   0.187   0.191   0.192   0.192   0.194
  0.196   0.196   0.199   0.202   0.202   0.204   0.205   0.208
  0.210   0.212   0.215   0.216   0.217   0.217   0.220   0.220
  0.221   0.223   0.223   0.226   0.227   0.228   0.229   0.230
  0.232   0.234   0.234   0.235   0.236   0.237   0.239   0.240
  0.242   0.245   0.247   0.249   0.250   0.252   0.258   0.259
  0.263   0.267   0.268   0.270   0.274   0.277   0.279   0.284
  0.285   0.285   0.288   0.290   0.296   0.298   0.298   0.302
  0.305   0.307   0.309   0.311   0.313   0.315   0.317   0.318
  0.319   0.319   0.326   0.327   0.327   0.328   0.330   0.330
  0.336   0.337   0.339   0.341   0.342   0.345   0.346   0.347
  0.349   0.352   0.356   0.362   0.365   0.375   0.385   0.390
  0.393   0.396   0.399   0.399   0.401   0.402   0.404   0.405
  0.407   0.408   0.411   0.414   0.417   0.418   0.422   0.425
  0.428   0.431   0.432   0.435   0.439   0.441   0.444   0.446
  0.447   0.450   0.451   0.455   0.455   0.456   0.459   0.460
  0.463   0.464   0.466   0.467   0.468   0.470   0.472   0.474
  0.475   0.477   0.479   0.479   0.481   0.482   0.484   0.485
  0.486   0.486   0.487   0.489   0.490   0.491   0.493   0.494
  0.495   0.496   0.498   0.499   0.499   0.501   0.501   0.502
  0.503   0.504   0.505   0.506   0.506   0.507   0.508   0.510
  0.511   0.512   0.513   0.514   0.515   0.516   0.517   0.517
  0.518   0.520   0.520   0.521   0.522   0.523   0.523   0.524
  0.525   0.526   0.527   0.529   0.530   0.531   0.531   0.532
  0.533   0.534   0.535   0.536   0.536   0.537   0.538   0.538
  0.539   0.540   0.541   0.542   0.543   0.544   0.545   0.546
  0.547   0.548   0.548   0.549   0.549   0.550   0.551   0.552
  0.553   0.554   0.555   0.555   0.556   0.557   0.558   0.559
  0.560   0.561   0.562   0.562   0.562   0.564   0.564   0.565
  0.566   0.567   0.567   0.569   0.569   0.570   0.570   0.572
  0.573   0.574   0.574   0.576   0.577   0.577   0.578   0.579
  0.580   0.581   0.582   0.582   0.583   0.585   0.585   0.586
  0.587   0.587   0.588   0.589   0.590   0.590   0.592   0.592
  0.593   0.594   0.595   0.597   0.597   0.598   0.598   0.600
  0.602   0.604   0.605   0.606   0.606   0.607   0.608   0.609
  0.610   0.612   0.613   0.614   0.616   0.616   0.617   0.618
  0.619   0.620   0.621   0.621   0.623   0.624   0.626   0.627
  0.628   0.629   0.629   0.630   0.631   0.632   0.633   0.633
  0.634   0.635   0.635   0.636   0.638   0.639   0.639   0.642
  0.643   0.644   0.644   0.645   0.646   0.648   0.648   0.650
  0.650   0.652   0.653   0.654   0.655   0.656   0.657   0.658
  0.659   0.659   0.660   0.660   0.660   0.661   0.662   0.663
  0.664   0.665   0.666   0.667   0.667   0.669   0.670   0.670
  0.671   0.672   0.673   0.674   0.675   0.676   0.678   0.679
  0.679   0.680   0.680   0.682   0.682   0.684   0.685   0.687
  0.688   0.689   0.689   0.690   0.693   0.693   0.694   0.696
  0.697   0.700   0.700   0.701   0.702   0.704   0.705   0.706
  0.708   0.708   0.709   0.711   0.711   0.712   0.714   0.715
  0.716   0.717   0.719   0.719   0.722   0.722   0.723   0.724
  0.725   0.726   0.727   0.728   0.729   0.730   0.732   0.733
  0.734   0.737   0.738   0.738   0.739   0.741   0.742   0.746
  0.747   0.747   0.751   0.752   0.754   0.756   0.758   0.758
  0.759   0.760   0.762   0.763   0.764   0.765   0.767   0.768
  0.770   0.771   0.771   0.773   0.774   0.775   0.777   0.778
  0.779   0.780   0.781   0.783   0.783   0.786   0.786   0.788
  0.789   0.790   0.792   0.792   0.794   0.795   0.796   0.798
  0.798   0.800   0.800   0.800   0.802   0.803   0.804   0.806
  0.807   0.807   0.808   0.808   0.809   0.810   0.810   0.812
  0.812   0.813   0.813   0.814   0.815   0.816   0.817   0.818
  0.819   0.820   0.821   0.822   0.823   0.824   0.825   0.825
  0.827   0.827   0.828   0.828   0.830   0.832   0.833   0.834
  0.836   0.838   0.840   0.842   0.843   0.847   0.850   0.852
  0.853   0.854   0.855   0.855   0.858   0.862   0.865   0.868
  0.869   0.871   0.877   0.878   0.879   0.883   0.885   0.888
  0.892   0.894   0.897   0.901   0.904   0.907   0.908   0.911
  0.914   0.917   0.919   0.920   0.922   0.924   0.926   0.928
  0.929   0.930   0.931   0.933   0.934   0.935   0.936   0.938
  0.939   0.940   0.942   0.944   0.945   0.948   0.950   0.953
  0.954   0.954   0.957   0.959   0.963   0.965   0.968   0.971
  0.972   0.975   0.978   0.979   0.981   0.987   0.988   0.992
  0.994   0.996   0.998   1.000   1.002   1.003   1.005   1.008
  1.010   1.013   1.013   1.014   1.016   1.017   1.020   1.022
  1.023   1.025   1.026   1.028   1.030   1.032   1.034   1.034
  1.036   1.037   1.039   1.041   1.042   1.042   1.044   1.046
  1.047   1.048   1.051   1.053   1.055   1.056   1.057   1.058
  1.060   1.062   1.063   1.064   1.065   1.066   1.068   1.071
  1.073   1.077   1.078   1.079   1.082   1.083   1.085   1.087
  1.089   1.090   1.092   1.092   1.095   1.097   1.099   1.100
  1.101   1.103   1.106   1.107   1.111   1.111   1.113   1.114
  1.116   1.118   1.122   1.125   1.127   1.129   1.132   1.133
  1.136   1.139   1.139   1.141   1.142   1.144   1.147   1.147
  1.148   1.151   1.152   1.154   1.155   1.158   1.159   1.162
  1.162   1.163   1.164   1.166   1.168   1.169   1.171   1.174
  1.175   1.177   1.178   1.180   1.180   1.182   1.183   1.187
  1.189   1.189   1.190   1.194   1.198   1.199   1.200   1.202
  1.205   1.207   1.209   1.210   1.212   1.214   1.217   1.219
  1.223   1.224   1.226   1.231   1.231   1.236   1.236   1.240
  1.245   1.250   1.252   1.254   1.256   1.257   1.261   1.262
  1.264   1.267   1.268   1.270   1.271   1.274   1.276   1.276
  1.277   1.281   1.282   1.283   1.285   1.288   1.289   1.291
  1.294   1.299   1.300   1.303   1.306   1.309   1.310   1.314
  1.316   1.317   1.320   1.322   1.323   1.326   1.329   1.331
  1.332   1.334   1.336   1.339   1.341   1.342   1.345   1.347
  1.350   1.351   1.354   1.356   1.360   1.360   1.363   1.365
  1.367   1.370   1.372   1.373   1.375   1.380   1.382   1.386
  1.388   1.393   1.395   1.398   1.400   1.402   1.405   1.408
  1.410   1.412   1.416   1.417   1.425   1.427   1.428   1.434
  1.436   1.439   1.441   1.441   1.444   1.446   1.448   1.450
  1.452   1.455   1.458   1.459   1.462   1.463   1.466   1.467
  1.468   1.470   1.472   1.476   1.476   1.477   1.479   1.483
  1.486   1.487   1.489   1.492   1.496   1.498   1.498   1.502
  1.504   1.506   1.506   1.509   1.510   1.515   1.517   1.522
  1.524   1.526   1.528   1.529   1.530   1.536   1.537   1.542
  1.542   1.548   1.549   1.552   1.554   1.557   1.558   1.559
  1.560   1.561   1.564   1.566   1.571   1.573   1.575   1.577
  1.578   1.580   1.583   1.585   1.587   1.589   1.590   1.591
  1.597   1.602   1.603   1.608   1.614   1.619   1.621   1.623
  1.625   1.630   1.633   1.636   1.640   1.642   1.647   1.648
  1.653   1.656   1.658   1.661   1.663   1.666   1.671   1.674
  1.679   1.683   1.685   1.688   1.691   1.695   1.695   1.700
  1.701   1.703   1.708   1.708   1.710   1.711   1.714   1.716
  1.717   1.721   1.722   1.725   1.726   1.728   1.731   1.732
  1.735   1.736   1.738   1.741   1.741   1.743   1.745   1.747
  1.747   1.749   1.750   1.753   1.754   1.755   1.757   1.759
  1.761   1.762   1.764   1.765   1.766   1.767   1.769   1.769
  1.770   1.772   1.772   1.773   1.775   1.777   1.778   1.779
  1.782   1.783   1.783   1.784   1.785   1.787   1.788   1.788
  1.790   1.791   1.793   1.796   1.796   1.798   1.798   1.799
  1.801   1.803   1.803   1.804   1.806   1.808   1.808   1.809
  1.810   1.814   1.815   1.817   1.819   1.820   1.821   1.822
  1.824   1.826   1.830   1.832   1.832   1.837   1.839   1.841
  1.844   1.845   1.845   1.847   1.850   1.850   1.853   1.854
  1.855   1.857   1.858   1.860   1.863   1.865   1.867   1.868
  1.871   1.872   1.873   1.876   1.878   1.880   1.881   1.884
  1.886   1.887   1.890   1.895   1.895   1.897   1.897   1.901
  1.902   1.907   1.909   1.911   1.912   1.914   1.917   1.918
  1.922   1.922   1.925   1.928   1.929   1.930   1.934   1.936
  1.937   1.938   1.940   1.943   1.944   1.947   1.948   1.952
  1.953   1.955   1.957   1.960   1.963   1.964   1.966   1.967
  1.970   1.972   1.974   1.979   1.980   1.981   1.983   1.985
  1.986   1.987   1.988   1.989   1.990   1.992   1.996   1.997
  1.998   1.999   2.002   2.003   2.005   2.006   2.007   2.008
  2.009   2.010   2.011   2.011   2.012   2.013   2.015   2.017
  2.017   2.019   2.019   2.022   2.023   2.024   2.026   2.026
  2.027   2.028   2.030   2.032   2.032   2.033   2.035   2.036
  2.038   2.040   2.041   2.041   2.043   2.043   2.045   2.046
  2.048   2.049   2.050   2.052   2.054   2.055   2.056   2.059
  2.060   2.060   2.062   2.063   2.064   2.064   2.065   2.067
  2.067   2.069   2.071   2.072   2.073   2.075   2.076   2.079
  2.082   2.082   2.084   2.084   2.087   2.089   2.090   2.093
  2.094   2.095   2.096   2.097   2.099   2.100   2.102   2.105
  2.109   2.111   2.114   2.115   2.115   2.116   2.119   2.121
  2.125   2.127   2.129   2.132   2.133   2.136   2.143   2.147
  2.147   2.149   2.151   2.154   2.158   2.162   2.168   2.171
  2.174   2.178   2.185   2.188   2.190   2.190   2.194   2.200
  2.205   2.208   2.212   2.213   2.216   2.217   2.219   2.221
  2.222   2.230   2.231   2.236   2.238   2.239   2.240   2.242
  2.244   2.247   2.250   2.252   2.255   2.259   2.261   2.265
  2.266   2.269   2.271   2.275   2.276   2.278   2.279   2.280
  2.281   2.282   2.284   2.287   2.288   2.290   2.292   2.295
  2.301   2.302   2.302   2.308   2.309   2.310   2.312   2.313
  2.316   2.319   2.321   2.323   2.327   2.330   2.332   2.334
  2.335   2.338   2.340   2.343   2.346   2.349   2.353   2.357
  2.357   2.359   2.360   2.364   2.366   2.368   2.369   2.371
  2.371   2.374   2.375   2.379   2.379   2.381   2.383   2.384
  2.385   2.387   2.387   2.389   2.391   2.392   2.394   2.395
  2.396   2.397   2.400   2.401   2.403   2.404   2.406   2.407
  2.408   2.411   2.413   2.414   2.418   2.419   2.421   2.426
  2.429   2.432   2.432   2.436   2.438   2.441   2.441   2.443
  2.446   2.446   2.448   2.449   2.451   2.453   2.457   2.459
  2.462   2.463   2.464   2.466   2.467   2.471   2.475   2.477
  2.481   2.482   2.483   2.487   2.488   2.489   2.491   2.491
  2.492   2.497   2.498   2.501   2.502   2.504   2.506   2.507
  2.508   2.510   2.514   2.516   2.516   2.518   2.519   2.521
  2.523   2.525   2.526   2.529   2.531   2.535   2.536   2.539
  2.542   2.544   2.548   2.553   2.554   2.558   2.561   2.567
  2.569   2.572   2.573   2.577   2.579   2.581   2.583   2.586
  2.590   2.592   2.592   2.595   2.598   2.600   2.600   2.604
  2.607   2.609   2.610   2.614   2.614   2.614   2.615   2.618
  2.621   2.623   2.625   2.628   2.628   2.630   2.631   2.633
  2.634   2.635   2.639   2.641   2.641   2.643   2.644   2.646
  2.650   2.651   2.652   2.653   2.656   2.658   2.660   2.661
  2.663   2.665   2.666   2.667   2.669   2.669   2.672   2.674
  2.677   2.677   2.678   2.681   2.683   2.684   2.684   2.686
  2.688   2.689   2.692   2.694   2.696   2.698   2.702   2.703
  2.706   2.708   2.711   2.713   2.717   2.720   2.722   2.725
  2.727   2.729   2.734   2.735   2.737   2.740   2.741   2.741
  2.744   2.748   2.752   2.754   2.755   2.757   2.760   2.761
  2.763   2.766   2.767   2.769   2.771   2.773   2.774   2.775
  2.777   2.779   2.781   2.782   2.787   2.787   2.793   2.796
  2.799   2.802   2.803   2.805   2.808   2.810   2.814   2.820
  2.822   2.823   2.824   2.826   2.826   2.835   2.836   2.838
  2.840   2.843   2.846   2.848   2.850   2.852   2.855   2.856
  2.857   2.858   2.862   2.865   2.867   2.869   2.869   2.871
  2.873   2.876   2.877   2.878   2.882   2.884   2.887   2.890
  2.890   2.892   2.893   2.894   2.896   2.898   2.899   2.904
  2.905   2.908   2.911   2.911   2.913   2.916   2.916   2.919
  2.920   2.922   2.923   2.925   2.928   2.930   2.932   2.932
  2.933   2.936   2.937   2.939   2.943   2.946   2.947   2.951
  2.954   2.955   2.958   2.960   2.964   2.972   2.974   2.977
  2.980   2.982   2.985   2.985   2.991   2.993   2.996   2.999
  3.003   3.008   3.010   3.013   3.015   3.020   3.021   3.024
  3.025   3.028   3.030   3.031   3.033   3.036   3.037   3.038
  3.041   3.043   3.045   3.052   3.053   3.055   3.059   3.059
  3.065   3.069   3.072   3.074   3.079   3.083   3.090   3.101
  3.102   3.116   3.120   3.125   3.133   3.141   3.142   3.145
  3.153   3.156   3.163   3.164   3.166   3.169   3.176   3.185
  3.186   3.191   3.194   3.197   3.218   3.226   3.228   3.232
  3.237   3.243   3.250   3.253   3.259   3.274   3.287   3.291
  3.292   3.296   3.302   3.311   3.313   3.315   3.316   3.325
  3.334   3.336   3.338   3.342   3.345   3.350   3.397   3.401
  3.404   3.406   3.415   3.420   3.427   3.428   3.432   3.436
  3.438   3.443   3.457   3.460   3.470   3.472   3.480   3.485
  3.495   3.503   3.503   3.511   3.514   3.517   3.532   3.540
  3.544   3.549   3.551   3.557   3.566   3.568   3.584   3.585
  3.607   3.608   3.674   3.682   3.819   3.842   3.987   4.013
  4.071   4.084   4.085   4.088   4.091   4.092   4.096   4.100
  4.102   4.107   4.109   4.113   4.115   4.118   4.124   4.126
  4.128   4.131   4.135   4.140   4.143   4.148   4.150   4.152
  4.153   4.163   4.166   4.173   4.177   4.180   4.183   4.196
  4.197   4.201   4.206   4.208   4.224   4.232   4.234   4.243
  4.246   4.248   4.252   4.252   4.255   4.258   4.261   4.264
  4.273   4.275   4.280   4.282   4.289   4.290   4.297   4.302
  4.310   4.313   4.329   4.332   4.375   4.384   4.391   4.392
  4.397   4.398   4.405   4.407   4.410   4.411   4.416   4.418
  4.423   4.424   4.425   4.431   4.439   4.454   4.463   4.472
  4.480   4.501   4.503   4.526   4.533   4.542   4.551   4.553
  4.557   4.564   4.602   4.614   4.623   4.625   4.630   4.633
  4.641   4.648   4.686   4.688   4.693   4.695   4.697   4.697
  4.706   4.709   4.709   4.715   4.763   4.777   4.808   4.811
  4.835   4.846   4.850   4.852   4.866   4.870   4.884   4.888
  4.904   4.925   4.953   4.956   4.957   4.969   4.975   4.976
  4.978   4.994   4.997   5.001   5.144   5.152   5.173   5.179
  5.185   5.189   5.198   5.214   5.293   5.309   5.320   5.337
  5.346   5.355
 --------------------------------------------------------------
 
          Ground-State Mulliken Net Atomic Charges

     Atom                 Charge (a.u.)
  ----------------------------------------
      1 O                    -0.506805
      2 C                    -0.086327
      3 H                     0.130060
      4 H                     0.125233
      5 H                     0.128845
      6 O                    -0.457218
      7 C                     0.604033
      8 C                    -0.256941
      9 H                     0.131462
     10 H                     0.139808
     11 C                    -0.195393
     12 H                     0.101775
     13 H                     0.143307
     14 C                    -0.171955
     15 H                     0.101512
     16 H                     0.117422
     17 C                     0.003812
     18 C                     0.100636
     19 C                    -0.110340
     20 H                     0.091747
     21 C                    -0.086554
     22 H                     0.090933
     23 C                    -0.100253
     24 H                     0.085641
     25 C                    -0.070069
     26 H                     0.105838
     27 C                    -0.119792
     28 H                     0.078787
     29 C                     0.028297
     30 C                    -0.018271
     31 C                     0.001940
     32 C                    -0.002993
     33 C                     0.033336
     34 C                    -0.006602
     35 C                    -0.000007
     36 C                     0.019000
     37 C                    -0.004707
     38 C                     0.007326
     39 C                    -0.070397
     40 C                    -0.006293
     41 C                    -0.001889
     42 C                    -0.010437
     43 C                     0.043063
     44 C                    -0.007233
     45 C                    -0.104328
     46 C                     0.017765
     47 C                    -0.050150
     48 C                    -0.005661
     49 C                     0.026442
     50 C                    -0.022691
     51 C                    -0.003827
     52 C                     0.037055
     53 C                     0.003526
     54 C                     0.007684
     55 C                     0.005767
     56 C                    -0.010516
     57 C                    -0.018626
     58 C                    -0.021243
     59 C                    -0.007946
     60 C                     0.074093
     61 C                     0.011095
     62 C                    -0.009009
     63 C                     0.044273
     64 C                    -0.040854
     65 C                     0.015387
     66 C                    -0.012018
     67 C                    -0.011671
     68 C                    -0.017906
     69 C                     0.004946
     70 C                    -0.010603
     71 C                    -0.019607
     72 C                    -0.042515
     73 C                     0.005419
     74 C                    -0.001635
     75 C                     0.016358
     76 C                    -0.022785
     77 C                     0.007033
     78 C                    -0.000404
     79 C                    -0.002918
     80 C                     0.027236
     81 C                     0.006149
     82 C                     0.020463
     83 C                     0.006174
     84 C                     0.003114
     85 C                     0.003301
     86 C                     0.005542
     87 C                    -0.024806
     88 C                    -0.014481
     89 O                    -0.478951
     90 C                    -0.104199
     91 H                     0.138038
     92 H                     0.124930
     93 H                     0.126093
     94 O                    -0.452215
     95 C                     0.609832
     96 C                    -0.269826
     97 H                     0.148031
     98 H                     0.136533
     99 C                    -0.185558
    100 H                     0.114664
    101 H                     0.124020
    102 C                    -0.187198
    103 H                     0.102465
    104 H                     0.099003
    105 C                     0.017120
    106 C                     0.062780
    107 C                    -0.113533
    108 H                     0.098190
    109 C                    -0.092044
    110 H                     0.095496
    111 C                    -0.075887
    112 H                     0.089013
    113 C                    -0.093105
    114 H                     0.084692
    115 C                    -0.099265
    116 H                     0.104691
    117 C                    -0.039978
    118 C                     0.015015
    119 C                    -0.003816
    120 C                    -0.016253
    121 C                     0.037714
    122 C                    -0.004815
    123 C                     0.000416
    124 C                    -0.017722
    125 C                    -0.021311
    126 C                    -0.031082
    127 C                    -0.102594
    128 C                     0.023676
    129 C                    -0.030112
    130 C                     0.000502
    131 C                    -0.001995
    132 C                    -0.030100
    133 C                    -0.087358
    134 C                     0.016874
    135 C                    -0.000578
    136 C                    -0.019483
    137 C                     0.025172
    138 C                    -0.017866
    139 C                    -0.018536
    140 C                    -0.017202
    141 C                     0.033666
    142 C                    -0.001858
    143 C                     0.021358
    144 C                    -0.015377
    145 C                     0.015697
    146 C                    -0.022248
    147 C                     0.019451
    148 C                     0.025944
    149 C                     0.008818
    150 C                    -0.012763
    151 C                    -0.005619
    152 C                     0.001378
    153 C                    -0.004237
    154 C                     0.014897
    155 C                     0.024010
    156 C                     0.024592
    157 C                    -0.002612
    158 C                     0.058256
    159 C                    -0.020784
    160 C                     0.003487
    161 C                     0.000159
    162 C                     0.013314
    163 C                    -0.021201
    164 C                     0.008767
    165 C                     0.007173
    166 C                     0.035886
    167 C                    -0.023866
    168 C                     0.015760
    169 C                    -0.010140
    170 C                    -0.004154
    171 C                    -0.018597
    172 C                     0.000164
    173 C                     0.020661
    174 C                     0.016231
    175 C                     0.015825
    176 C                    -0.000368
  ----------------------------------------
  Sum of atomic charges =     0.000000

 -----------------------------------------------------------------
                    Cartesian Multipole Moments
 -----------------------------------------------------------------
    Charge (ESU x 10^10)
                 0.0000
    Dipole Moment (Debye)
         X       0.2026      Y       2.9839      Z      -1.7857
       Tot       3.4833
    Quadrupole Moments (Debye-Ang)
        XX    -809.0572     XY     -14.2299     YY    -778.3877
        XZ       0.8122     YZ     -13.4852     ZZ    -801.9975
    Octopole Moments (Debye-Ang^2)
       XXX     106.7958    XXY      48.5941    XYY      -1.9954
       YYY     339.9277    XXZ    -149.0310    XYZ       7.9961
       YYZ    -135.9169    XZZ       0.8841    YZZ      58.8061
       ZZZ    -256.4566
    Hexadecapole Moments (Debye-Ang^3)
      XXXX -122792.9519   XXXY   -1760.8567   XXYY  -27176.8254
      XYYY    -190.2959   YYYY  -46092.0693   XXXZ    -408.2466
      XXYZ     -10.3806   XYYZ      -5.1454   YYYZ   -1559.8491
      XXZZ  -24631.6718   XYZZ    -276.8516   YYZZ  -11794.1650
      XZZZ    -227.0483   YZZZ    -237.0091   ZZZZ  -26275.8468
 -----------------------------------------------------------------
Archival summary:
1\1\mn251\SP\ProcedureUnspecified\6-31G**\428\afmv_a\FriOct1203:57:582018FriOct1203:57:582018\0\\#,ProcedureUnspecified,6-31G**,\\0,1\O\C,1,1.41871\O,2,1.20905,1,123.58\C,1,1.47911,2,120.553,3,0.650103,0\H,4,1.09613,1,110.766,2,52.7276,0\H,4,1.09653,1,110.613,2,-66.9721,0\H,4,1.09713,1,110.573,2,176.794,0\C,2,1.49898,1,114.156,3,-177.67,0\H,8,1.09703,2,112.151,1,-39.5706,0\H,8,1.09744,2,100.391,1,82.2043,0\C,8,1.5431,2,114.752,1,-161.714,0\H,11,1.09691,8,110.542,2,-35.1773,0\H,11,1.09701,8,104.372,2,76.3925,0\C,11,1.49529,8,115.828,2,-172.689,0\H,14,1.09656,11,105.358,8,-167.347,0\H,14,1.09693,11,109.625,8,-46.7587,0\C,14,1.56314,11,113.894,8,70.995,0\C,17,1.50805,14,122.618,11,-94.8369,0\C,18,1.46306,17,63.6418,14,-103.211,0\C,18,1.49344,17,127.459,14,5.01381,0\C,20,1.38985,18,123.795,17,-74.751,0\C,20,1.40875,18,107.219,17,140.89,0\C,22,1.39176,20,113.61,18,2.32673,0\C,23,1.40281,22,117.88,20,145.296,0\C,24,1.35185,23,125.291,22,6.79282,0\C,24,1.39294,23,115.237,22,-135.42,0\C,26,1.41504,24,108.426,23,148.868,0\C,27,1.39589,26,120.089,24,-143.103,0\C,28,1.38695,27,118.315,26,1.2714,0\C,28,1.38723,27,119.492,26,132.436,0\C,29,1.4127,28,111.827,27,143.729,0\C,31,1.35543,29,103.864,28,-6.82878,0\C,32,1.39393,31,121.902,29,-142.997,0\C,33,1.409,32,119.427,31,136.689,0\C,34,1.38672,33,121.939,32,8.40647,0\C,35,1.3625,34,118.62,33,-3.88882,0\C,35,1.3976,34,115.833,33,-140.502,0\C,37,1.41294,35,122.097,34,-0.811914,0\C,38,1.37387,37,122.295,35,140.124,0\C,39,1.40606,38,108.636,37,-145.318,0\C,40,1.38041,39,108.053,38,-1.92757,0\C,41,1.39124,40,109.725,39,0.330298,0\C,42,1.3669,41,124.158,40,136.794,0\C,41,1.40714,40,119.728,39,139.422,0\C,44,1.40166,41,123.943,40,-139.744,0\C,45,1.39878,44,107.933,41,144.243,0\C,46,1.40471,45,107.814,44,-1.44732,0\C,47,1.39351,46,117.712,45,-141.823,0\C,48,1.39762,47,125.532,46,0.823512,0\C,49,1.3997,48,117.33,47,3.09946,0\C,50,1.37914,49,118.588,48,135.049,0\C,51,1.38502,50,106.405,49,-145.087,0\C,52,1.40735,51,111.199,50,4.99014,0\C,43,1.4097,42,116.255,41,9.42719,0\C,53,1.41035,52,104.961,51,-3.24858,0\C,49,1.41195,48,109.812,47,149.276,0\C,56,1.38901,49,118.104,48,-133.045,0\C,57,1.40434,56,118.658,49,-13.7757,0\C,58,1.3916,57,106.69,56,148.836,0\C,59,1.4103,58,107.086,57,0.354652,0\C,60,1.3801,59,111.767,58,0.84057,0\C,61,1.41315,60,125.342,59,-150.158,0\C,47,1.41386,46,109.002,45,4.05132,0\C,63,1.37412,47,118.002,46,-146.56,0\C,64,1.38503,63,121.708,47,-2.57,0\C,64,1.39442,63,120.276,47,136.96,0\C,66,1.38066,64,109.851,63,-144.16,0\C,67,1.40392,66,121.242,64,141.65,0\C,68,1.39927,67,119.141,66,2.17393,0\C,69,1.39676,68,107.281,67,-142.22,0\C,70,1.3685,69,110.955,68,-1.53598,0\C,70,1.38063,69,122.308,68,146.246,0\C,54,1.41459,43,103.818,42,-148.048,0\C,25,1.41757,24,108.204,23,-145.577,0\C,74,1.37869,25,114.756,24,132.784,0\C,71,1.41949,70,106.657,69,1.3524,0\C,48,1.42304,47,117.918,46,150.13,0\C,17,1.55009,14,111.319,11,54.3583,0\C,78,1.3818,17,124.68,14,-74.2434,0\H,79,1.08559,78,117.26,17,-0.818161,0\C,79,1.37541,78,126.661,17,164.714,0\H,81,1.08566,79,127.866,78,-176.173,0\C,78,1.40366,17,117.693,14,98.2228,0\H,83,1.08561,78,121.923,17,16.1729,0\C,83,1.39123,78,120.128,17,-175.119,0\H,85,1.08588,83,117.477,78,-174.867,0\C,81,1.40706,79,114.425,78,13.4236,0\H,87,1.08618,81,117.677,79,172.985,0\C,68,2.97773,67,123.582,66,116.309,0\C,89,1.39476,68,113.848,67,-167.819,0\C,89,1.40348,68,107.772,67,-49.2252,0\C,91,1.36707,89,109.443,68,-116.052,0\C,90,1.41918,89,119.517,68,-97.0236,0\C,93,1.35815,90,120.631,89,-15.3121,0\C,94,1.38429,93,115.483,90,-139.486,0\C,95,1.40646,94,105.639,93,6.60803,0\C,95,1.41017,94,116.748,93,146.722,0\C,97,1.3714,95,117.17,94,-134.21,0\C,97,1.37731,95,121.824,94,5.91432,0\C,99,1.37702,97,120.747,95,-1.1685,0\C,100,1.36213,99,120.032,97,-2.26583,0\C,101,1.37321,100,108.086,99,-144.177,0\C,98,1.38497,97,123.28,95,-1.45795,0\C,99,1.38675,97,108.199,95,-146.624,0\C,103,1.39446,98,118.581,97,5.99901,0\C,105,1.38151,103,111.217,98,139.272,0\C,106,1.40047,105,121.006,103,-142.794,0\C,98,1.40152,97,107.132,95,150.241,0\C,108,1.40074,98,119.615,97,-147.893,0\C,100,1.40534,99,119.98,97,-138.182,0\C,110,1.36852,100,110.99,99,144.024,0\C,111,1.37606,110,119.989,100,-141.037,0\C,112,1.38562,111,120.864,110,-0.247541,0\C,113,1.36857,112,120.173,111,-5.44471,0\C,110,1.3929,100,121.226,99,-2.8891,0\C,112,1.39971,111,119.151,110,134.73,0\C,116,1.4042,112,108.443,111,-140.31,0\C,117,1.36171,116,123.983,112,143.485,0\C,118,1.39385,117,117.895,116,-0.959183,0\C,119,1.37531,118,107.098,117,-143.079,0\C,117,1.39806,116,108.892,112,-3.43448,0\C,118,1.40862,117,124.182,116,-143.31,0\C,122,1.39142,118,107.994,117,142.138,0\C,107,1.40885,106,117.679,105,132.45,0\C,121,1.41116,117,119.363,116,150.379,0\C,125,1.35633,121,114.527,117,-131.996,0\C,120,1.41204,119,120.537,118,146.006,0\C,127,1.39874,120,121.164,119,2.18671,0\C,128,1.40932,127,116.157,120,-8.48008,0\C,125,1.41465,121,122.82,117,-3.40065,0\C,115,1.41737,110,120.06,100,4.27773,0\C,131,1.40577,115,111.839,110,140.104,0\C,132,1.39381,131,105.825,115,-4.32608,0\C,106,1.41879,105,104.923,103,-1.18977,0\C,134,1.39349,106,120.56,105,-142.643,0\C,134,1.39601,106,110.635,105,0.960546,0\C,135,1.39733,134,119.947,106,7.82374,0\C,137,1.37906,135,113.626,134,144.912,0\C,138,1.39593,137,106.268,135,-5.66506,0\C,139,1.39978,138,119.103,137,-140.322,0\C,136,1.41235,134,123.882,106,-143.796,0\C,141,1.40922,136,118.054,134,-0.346887,0\C,142,1.4045,141,120.3,136,4.13966,0\C,140,1.42783,139,119.439,138,136.859,0\C,132,1.42943,131,118.124,115,-142.046,0\C,145,1.38309,132,119.388,131,141.729,0\C,107,1.48218,106,125.165,105,-10.6616,0\C,147,1.49643,107,124.574,106,-61.2916,0\C,148,1.49205,147,117.021,107,-16.2649,0\C,149,1.42526,148,121.281,147,124.296,0\H,150,1.08647,149,124.275,148,11.4296,0\C,150,1.42379,149,114.767,148,-170.742,0\H,152,1.08574,150,119.892,149,-172.86,0\C,152,1.38067,150,125.207,149,4.597,0\H,154,1.08543,152,122.224,150,-175.727,0\C,154,1.41107,152,119.669,150,-11.2135,0\H,156,1.08616,154,113.114,152,-173.062,0\C,156,1.42993,154,117.26,152,13.2932,0\H,158,1.0857,156,118.134,154,167.123,0\C,148,1.49442,147,60.2242,107,101.016,0\C,148,1.57282,147,122.493,107,-161.113,0\H,161,1.09721,148,108.481,147,-25.635,0\H,161,1.09792,148,106.121,147,87.3521,0\C,161,1.52925,148,125.027,147,-142.929,0\H,164,1.09613,161,113.355,148,18.6033,0\H,164,1.09724,161,105.318,148,132.087,0\C,164,1.52754,161,111.502,148,-111.664,0\H,167,1.09692,164,108.487,161,-62.9832,0\H,167,1.09741,164,114.213,161,61.1011,0\C,167,1.52083,164,108.461,161,-178.327,0\O,170,1.19041,167,128.014,164,0.315404,0\O,170,1.36236,167,104.24,164,-173.917,0\C,172,1.47588,170,119.899,167,-170.781,0\H,173,1.09622,172,109.54,170,-34.8576,0\H,173,1.0968,172,113.762,170,86.0538,0\H,173,1.09693,172,115.648,170,-152.694,0\\\@

 Total job time:  865.92s(wall), 8295.27s(cpu) 
 Fri Oct 12 03:57:58 2018

        *************************************************************
        *                                                           *
        *  Thank you very much for using Q-Chem.  Have a nice day.  *
        *                                                           *
        *************************************************************


