
Running Job 1 of 1 ./7/18.qcin
qchem ./7/18.qcin_27621.0 /tmpu/cab_g/afmv_a/scratch_qchem/qchem27621/ 1
/tmpu/appuserlic/qchem4.4/serial-multicore/exe/qcprog.exe_s ./7/18.qcin_27621.0 /tmpu/cab_g/afmv_a/scratch_qchem/qchem27621/
Check license passed

                  Welcome to Q-Chem
     A Quantum Leap Into The Future Of Chemistry


 Q-Chem 4.4, Q-Chem, Inc., Pleasanton, CA (2016)

 Y. Shao,  Z. Gan,  E. Epifanovsky,  A. T. B. Gilbert,  M. Wormit,  
 J. Kussmann,  A. W. Lange,  A. Behn,  J. Deng,  X. Feng,  D. Ghosh,  
 M. Goldey,  P. R. Horn,  L. D. Jacobson,  I. Kaliman,  F. Rob,  
 R. Z. Khaliullin,  T. Kus,  A. Landau,  J. Liu,  E. I. Proynov,  Y. M. Rhee,  
 R. M. Richard,  M. A. Rohrdanz,  R. P. Steele,  E. J. Sundstrom,  
 H. L. Woodcock III,  P. M. Zimmerman,  D. Zuev,  B. Albrecht,  E. Alguire,  
 B. Austin,  S. A. Baeppler,  G. J. O. Beran,  Y. A. Bernard,  E. Berquist,  
 K. Brandhorst,  K. B. Bravaya,  S. T. Brown,  D. Casanova,  C.-M. Chang,  
 Y. Chen,  S. H. Chien,  K. D. Closser,  M. P. Coons,  D. L. Crittenden,  
 S. Dasgupta,  M. Diedenhofen,  R. A. DiStasio Jr.,  H. Do,  A. D. Dutoi,  
 R. G. Edgar,  P.-T. Fang,  S. Fatehi,  Q. Feng,  L. Fusti-Molnar,  
 A. Ghysels,  A. Golubeva-Zadorozhnaya,  J. Gomes,  A. Gunina,  
 M. W. D. Hanson-Heine,  P. H. P. Harbach,  A. W. Hauser,  J. E. Herr,  
 E. G. Hohenstein,  Z. C. Holden,  K. Hui,  T.-C. Jagau,  H. Ji,  B. Kaduk,  
 K. Khistyaev,  Jaehoon Kim,  Jihan Kim,  R. A. King,  P. Klunzinger,  
 K. Koh,  D. Kosenkov,  T. Kowalczyk,  C. M. Krauter,  A. Kunitsa,  
 K. U. Lao,  A. Laurent,  K. V. Lawler,  J. Lee,  D. Lefrancois,  S. Lehtola,  
 S. V. Levchenko,  C. Y. Lin,  Y.-S. Lin,  F. Liu,  E. Livshits,  
 R. C. Lochan,  A. Luenser,  P. Manohar,  S. F. Manzer,  S.-P. Mao,  Y. Mao,  
 N. Mardirossian,  A. V. Marenich,  L. A. Martinez-Martinez,  S. A. Maurer,  
 N. J. Mayhall,  J.-M. Mewes,  A. F. Morrison,  K. Nanda,  T. S. Nguyen-Beck,  
 C. M. Oana,  R. Olivares-Amaya,  D. P. O'Neill,  J. A. Parkhill,  
 T. M. Perrine,  R. Peverati,  P. A. Pieniazek,  F. Plasser,  A. Prociuk,  
 D. R. Rehn,  E. Rosta,  N. J. Russ,  N. Sergueev,  S. M. Sharada,  
 S. Sharma,  D. W. Small,  A. Sodt,  T. Stauch,  T. Stein,  D. Stuck,  
 Y.-C. Su,  A. J. W. Thom,  T. Tsuchimochi,  L. Vogt,  O. Vydrov,  T. Wang,  
 M. A. Watson,  J. Wenzel,  A. White,  C. F. Williams,  V. Vanovschi,  
 K. Yao,  S. Yeganeh,  S. R. Yost,  Z.-Q. You,  I. Y. Zhang,  X. Zhang,  
 Y. Zhao,  B. R. Brooks,  G. K. L. Chan,  D. M. Chipman,  C. J. Cramer,  
 W. A. Goddard III,  M. S. Gordon,  W. J. Hehre,  A. Klamt,  
 H. F. Schaefer III,  M. W. Schmidt,  C. D. Sherrill,  D. G. Truhlar,  
 A. Warshel,  X. Xu,  A. Aspuru-Guzik,  R. Baer,  A. T. Bell,  N. A. Besley,  
 J.-D. Chai,  A. Dreuw,  B. D. Dunietz,  T. R. Furlani,  S. R. Gwaltney,  
 C.-P. Hsu,  Y. Jung,  J. Kong,  D. S. Lambrecht,  W. Liang,  C. Ochsenfeld,  
 V. A. Rassolov,  L. V. Slipchenko,  J. E. Subotnik,  T. Van Voorhis,  
 J. M. Herbert,  A. I. Krylov,  P. M. W. Gill,  M. Head-Gordon

 Contributors to earlier versions of Q-Chem not listed above: 
 R. D. Adamson,  J. Baker,  E. F. C. Byrd,  A. K. Chakraborty,  C.-L. Cheng,  
 H. Dachsel,  R. J. Doerksen,  G. Hawkins,  A. Heyden,  S. Hirata,  
 G. Kedziora,  F. J. Keil,  C. Kelley,  P. P. Korambath,  W. Kurlancheek,  
 A. M. Lee,  M. S. Lee,  D. Liotard,  I. Lotan,  P. E. Maslen,  N. Nair,  
 D. Neuhauser,  R. Olson,  B. Peters,  J. Ritchie,  N. E. Schultz,  
 N. Shenvi,  A. C. Simmonett,  K. S. Thanthiriwatte,  Q. Wu,  W. Zhang

 Please cite Q-Chem as follows:
 Y. Shao et al., Mol. Phys. 113, 184-215 (2015)
 DOI: 10.1080/00268976.2014.952696

 Q-Chem 4.4.2 for Intel X86 Linux

 Parts of Q-Chem use Armadillo 5.200.1 (Boston Tea Smuggler).
 http://arma.sourceforge.net/

 Q-Chem begins on Fri Oct 12 05:09:30 2018  

Host: 
0

     Scratch files written to /tmpu/cab_g/afmv_a/scratch_qchem/qchem27621//
 Dec716 11556_ 22328  22283 4050   
Processing $rem in /tmpu/appuserlic/qchem4.4/serial-multicore/config/preferences.
 MEM_TOTAL  2000 
FILE_GEOM_ORG=        593

Checking the input file for inconsistencies... 	...done.

--------------------------------------------------------------
User input:
--------------------------------------------------------------
$comment
SP
$end

$rem
MEM_STATIC 5000
MEM_TOTAL 20000
JOBTYPE SP
EXCHANGE B3LYP
BASIS 6-31g(d,p)
$end

$molecule
0 1
O          14.935000     16.356000     -1.314000
C          15.946000     16.691000     -0.286000
H          16.842000     17.030000     -0.821000
H          16.273000     15.791000      0.249000
H          15.578000     17.375000      0.489000
O          13.258000     16.045000      0.272000
C          13.716000     15.905000     -0.818000
C          13.029000     15.122000     -1.852000
H          12.628000     15.732000     -2.671000
H          12.074000     14.746000     -1.463000
C          13.886000     13.966000     -2.362000
H          13.391000     13.437000     -3.187000
H          14.849000     14.295000     -2.773000
C          14.028000     12.921000     -1.244000
H          14.310000     13.435000     -0.317000
H          13.030000     12.481000     -1.127000
C          15.103000     11.876000     -1.647000
C          16.598000     12.275000     -1.364000
C          17.359000     13.044000     -2.324000
H          17.035000     13.342000     -3.316000
C          18.665000     13.490000     -2.029000
H          19.202000     13.920000     -2.870000
C          19.163000     13.215000     -0.760000
H          20.129000     13.640000     -0.503000
C          18.502000     12.387000      0.125000
H          18.932000     12.191000      1.103000
C          17.233000     11.939000     -0.147000
H          16.726000     11.337000      0.602000
C          16.722000      8.649000     -5.750000
C          17.423000      7.372000     -3.796000
C          14.231000      4.201000     -4.185000
C          11.882000      9.907000     -5.546000
C          12.099000      5.618000     -1.781000
C          17.264000      8.647000     -4.393000
C          10.532000      7.789000     -4.128000
C          15.602000      5.338000     -5.900000
C          14.970000      8.248000     -0.697000
C          11.520000     10.037000     -4.158000
C          14.732000     10.409000     -1.635000
C          13.617000      8.554000     -0.644000
C          11.368000      8.955000     -2.194000
C          10.678000      6.545000     -3.477000
C          16.700000      8.888000     -2.197000
C          12.081000      4.718000     -4.074000
C          14.855000     11.082000     -2.912000
C          13.606000     11.158000     -3.755000
C          12.546000      4.775000     -2.773000
C          12.885000      7.054000     -7.278000
C          13.166000      5.121000     -6.224000
C          14.412000      5.567000     -6.691000
C          16.537000      6.303000     -5.832000
C          14.042000     10.894000     -5.075000
C          15.641000      9.283000     -1.367000
C          17.133000      6.196000     -4.519000
C          10.880000      9.001000     -3.514000
C          17.024000      7.544000     -2.417000
C          12.611000      7.527000     -0.695000
C          13.550000      9.391000     -7.039000
C          15.489000      4.609000     -4.684000
C          13.412000      9.770000     -1.205000
C          15.257000      7.741000     -7.236000
C          11.473000      7.731000     -1.499000
C          15.361000      6.881000     -0.850000
C          11.178000      6.361000     -5.678000
C          10.812000      7.702000     -5.544000
C          14.349000      5.815000     -0.938000
C          13.148000     10.284000     -5.993000
C          12.392000     10.604000     -3.294000
C          12.561000      8.369000     -7.021000
C          15.919000     10.559000     -3.837000
C          16.048000      5.346000     -2.419000
C          12.303000      9.899000     -2.063000
C          13.023000      6.211000     -0.887000
C          14.894000      9.075000     -7.052000
C          13.884000      4.325000     -2.810000
C          16.419000      7.521000     -6.488000
C          13.096000      4.471000     -4.951000
C          16.417000      6.497000     -1.717000
C          14.807000      4.888000     -1.930000
C          16.818000      9.566000     -3.451000
C          15.403000     10.603000     -5.119000
C          12.176000      6.037000     -6.617000
C          16.415000      5.105000     -3.788000
C          11.133000      6.513000     -2.151000
C          11.525000      8.723000     -6.215000
C          11.081000      5.658000     -4.464000
C          15.828000      9.671000     -6.081000
C          14.260000      6.802000     -7.341000
O          22.599000      6.203000     -0.874000
C          23.924000      6.853000     -0.846000
H          24.232000      7.430000     -1.726000
H          24.664000      6.074000     -0.622000
H          23.988000      7.560000     -0.010000
O          21.425000      8.203000     -0.523000
C          21.473000      7.001000     -0.776000
C          20.165000      6.118000     -1.086000
H          20.251000      5.815000     -2.137000
H          19.308000      6.802000     -1.058000
C          19.923000      4.977000     -0.022000
H          20.352000      5.273000      0.944000
H          18.857000      4.790000      0.155000
C          20.709000      3.697000     -0.462000
H          20.536000      3.447000     -1.516000
H          21.776000      3.806000     -0.233000
C          20.273000      2.446000      0.335000
C          20.927000      2.425000      1.724000
C          22.092000      1.651000      2.034000
H          22.523000      0.981000      1.297000
C          22.565000      1.626000      3.366000
H          23.511000      1.144000      3.590000
C          21.930000      2.482000      4.337000
H          22.423000      2.505000      5.304000
C          20.769000      3.084000      4.042000
H          20.293000      3.628000      4.852000
C          20.248000      3.091000      2.760000
H          19.319000      3.638000      2.625000
C          19.765000     -3.029000      0.175000
C          17.970000     -2.304000      1.692000
C          14.652000     -3.262000     -1.171000
C          19.442000     -0.513000     -4.229000
C          14.183000      0.074000     -2.148000
C          19.284000     -2.162000      1.204000
C          16.718000     -0.084000     -4.682000
C          16.595000     -4.452000     -0.673000
C          16.586000      1.323000      0.782000
C          18.890000      0.816000     -3.982000
C          18.835000      1.885000      0.133000
C          16.508000      1.988000     -0.427000
C          17.006000      1.796000     -3.137000
C          15.380000     -0.217000     -4.174000
C          18.360000     -0.089000      1.695000
C          14.416000     -2.177000     -3.175000
C          20.004000      1.162000     -0.385000
C          20.155000      0.870000     -1.888000
C          13.960000     -1.295000     -2.142000
C          18.073000     -3.597000     -3.721000
C          15.967000     -4.023000     -2.996000
C          16.832000     -4.588000     -2.088000
C          17.701000     -4.161000      0.178000
C          20.617000     -0.394000     -2.045000
C          17.912000      1.130000      1.101000
C          17.189000     -3.372000      1.255000
C          17.508000      0.963000     -4.150000
C          17.397000     -1.079000      1.950000
C          15.467000      1.699000     -1.368000
C          20.029000     -2.477000     -3.211000
C          15.498000     -3.778000     -0.198000
C          17.827000      2.290000     -0.919000
C          19.214000     -4.141000     -1.679000
C          15.699000      1.643000     -2.696000
C          15.650000      0.333000      1.125000
C          16.334000     -2.249000     -4.686000
C          17.318000     -1.346000     -4.995000
C          14.597000      0.036000      0.253000
C          20.268000     -1.054000     -3.196000
C          19.189000      1.401000     -2.750000
C          19.022000     -2.705000     -4.144000
C          20.294000     -0.205000      0.209000
C          15.218000     -1.863000      1.281000
C          18.083000      2.125000     -2.244000
C          14.486000      0.724000     -0.977000
C          20.165000     -3.166000     -2.025000
C          14.049000     -1.992000     -0.920000
C          18.996000     -4.032000     -0.332000
C          14.831000     -3.351000     -2.523000
C          16.058000     -0.846000      1.729000
C          14.305000     -1.328000      0.340000
C          19.537000     -0.743000      1.208000
C          20.694000     -1.046000     -0.829000
C          16.682000     -3.401000     -4.049000
C          15.806000     -3.134000      0.991000
C          14.849000      0.655000     -3.226000
C          18.698000     -1.559000     -4.861000
C          15.137000     -1.590000     -4.228000
C          20.458000     -2.444000     -0.859000
C          18.172000     -4.383000     -2.549000
$end

--------------------------------------------------------------
 ----------------------------------------------------------------
             Standard Nuclear Orientation (Angstroms)
    I     Atom           X                Y                Z
 ----------------------------------------------------------------
    1      O      11.4950795829     2.9447876236    -0.9827952054
    2      C      11.4006135135     4.4046291786    -1.2087792671
    3      H      11.5632689029     4.8871797430    -0.2368481085
    4      H      10.3794246500     4.6920673619    -1.4875382953
    5      H      12.0398151677     4.7677527693    -2.0233144125
    6      O      11.4158105393     2.4709552369    -3.2617522668
    7      C      11.3165879374     2.1592363771    -2.1170032866
    8      C      10.8989207316     0.8108668357    -1.7149240840
    9      H      11.7035817398     0.2186472058    -1.2616487022
   10      H      10.7373996588     0.1889341776    -2.6047739094
   11      C       9.6424099747     0.8328580016    -0.8479857319
   12      H       9.3864210669    -0.1737681012    -0.4920860713
   13      H       9.7601244041     1.4343994289     0.0624110082
   14      C       8.4487115703     1.2675257776    -1.7130065663
   15      H       8.7321819027     2.1646127782    -2.2768580397
   16      H       8.2763090325     0.4386560885    -2.4105346328
   17      C       7.2251564162     1.5505159074    -0.8003793855
   18      C       7.1699657660     2.9758020772    -0.1371838440
   19      C       7.8390624007     3.2407938704     1.1174758879
   20      H       8.3504467699     2.5161596029     1.7429638617
   21      C       7.8769750814     4.5421096624     1.6621930971
   22      H       8.2650102418     4.6023946829     2.6752796830
   23      C       7.3020070668     5.5646871207     0.9153750979
   24      H       7.4152318925     6.5776303646     1.2908163363
   25      C       6.5608843264     5.3160224632    -0.2224442954
   26      H       6.1207482404     6.1442445511    -0.7702840521
   27      C       6.5079984456     4.0555595327    -0.7641871167
   28      H       5.9610967244     3.9146604526    -1.6923573363
   29      C       4.3041932430    -0.5068556448     3.3353787600
   30      C       2.6221544494     0.7632561132     2.1115292516
   31      C       0.4973762906    -2.8474614966     0.4252724153
   32      C       6.7550461695    -3.7242031696     0.3871971446
   33      C       2.0699430532    -2.6896240729    -2.7107521581
   34      C       3.9654235525     0.6808073314     2.5544122102
   35      C       4.8897520994    -4.5809984593    -1.6390624301
   36      C       1.4638021673    -2.4357198649     2.6636032339
   37      C       3.6645082906     0.9100823605    -1.7974765712
   38      C       6.7768447003    -3.1721554770    -0.9429367468
   39      C       5.9223571646     0.8365370673    -1.0881680686
   40      C       4.3066495499    -0.0051978753    -2.6202588591
   41      C       5.5049691709    -2.4918012623    -2.6664722934
   42      C       3.5717880442    -4.4685215517    -2.1319850351
   43      C       4.0312927864     1.5714218942     0.4565418747
   44      C       1.5432856158    -4.2774919768    -0.9025816841
   45      C       6.7138330869     0.4036012052     0.0453747862
   46      C       7.2368707909    -1.0108695740    -0.0007768658
   47      C       1.2891402461    -3.1631612457    -1.6808824953
   48      C       4.0156033253    -4.7915252707     2.2584850530
   49      C       1.9473037812    -4.5511023965     1.4899150579
   50      C       2.1097500154    -3.7298341971     2.6162590398
   51      C       2.1272246049    -1.3934838016     3.1962275457
   52      C       7.0579958859    -1.5073679533     1.3121150291
   53      C       4.5697607000     1.3504897708    -0.8192509387
   54      C       1.6802997508    -0.2207649769     2.4781587933
   55      C       5.8661473862    -3.6039224124    -1.8819999585
   56      C       2.6950813041     1.2943304806     0.7687456912
   57      C       3.6004458517    -1.1105948134    -3.2108009371
   58      C       6.0346491439    -3.4504084855     2.5513583208
   59      C       0.6249681224    -2.0465382479     1.5829732722
   60      C       5.6006773043    -0.1199385360    -2.2359038778
   61      C       4.0375240796    -2.7459423164     3.6424022678
   62      C       4.2106499268    -2.3797174532    -3.2181976907
   63      C       2.2790850532     0.7156422678    -1.5012089497
   64      C       3.5779244857    -5.3940515241    -0.0651967986
   65      C       4.9346467131    -5.1990201440    -0.3325178763
   66      C       1.5425468027    -0.4270354205    -2.0669324742
   67      C       6.8435392413    -2.8967545598     1.5062108953
   68      C       6.9638075734    -1.8431819578    -1.1079921000
   69      C       5.3188785281    -4.5019870288     1.9151319515
   70      C       6.0655051433     0.5361523811     1.3956899581
   71      C       0.8570677999    -0.1086680157     0.1076212116
   72      C       6.1393779231    -1.4199263400    -2.1857107245
   73      C       2.2636734260    -1.2959854913    -2.8685528130
   74      C       5.3796461042    -2.5222128475     3.3360779367
   75      C       0.5113387648    -2.2931134588    -0.8858009245
   76      C       3.4136977473    -1.4950958599     3.7085222300
   77      C       1.1643180728    -4.0729966453     0.3916085109
   78      C       1.7571786394     0.9164723177    -0.1967696118
   79      C       0.6787163902    -0.9171444462    -1.0340979466
   80      C       4.8255801413     1.1492457346     1.5687463920
   81      C       6.4267622007    -0.5763678247     2.1329199969
   82      C       3.1388527640    -5.2608146849     1.2660300671
   83      C       0.7253667214    -0.6790960372     1.4207082986
   84      C       3.2318350532    -3.3740974021    -2.9400646999
   85      C       5.8155805664    -4.7311724858     0.6705400058
   86      C       2.7599425254    -4.9860137601    -1.1337587742
   87      C       5.5626124925    -1.0761565366     3.1219344181
   88      C       3.4205742300    -3.8490165393     3.1044848562
   89      O      -0.2784585270     6.0452606502     2.7299897851
   90      C      -0.0129223565     7.2697449623     3.5103984675
   91      H       0.5814471012     7.1761234438     4.4269970486
   92      H      -0.9835822678     7.7324305709     3.7303038203
   93      H       0.5252627847     8.0054201663     2.9004970425
   94      O       1.8895646872     5.9410186900     1.8410094948
   95      C       0.7664934223     5.4759437295     2.0241302612
   96      C       0.3144426441     4.0344964585     1.4722853021
   97      H       0.1525767913     3.4114933211     2.3608079729
   98      H       1.1895001312     3.5974583218     0.9759375798
   99      C      -0.8615591095     4.1156479562     0.4220589885
  100      H      -0.8304548964     5.0826907727    -0.0962784682
  101      H      -0.7832245737     3.3441573874    -0.3533892707
  102      C      -2.2275441450     4.0862186047     1.1856130443
  103      H      -2.2699313498     3.2788584761     1.9270427089
  104      H      -2.4384362969     5.0665440730     1.6297948500
  105      C      -3.4190784370     3.8339095872     0.2333041706
  106      C      -3.8101550969     5.1199509208    -0.5087434925
  107      C      -4.9007135055     5.9587099897    -0.1092856326
  108      H      -5.5486432406     5.6696646135     0.7119754884
  109      C      -5.2396062129     7.0724252427    -0.9113879129
  110      H      -5.9814731713     7.7813178286    -0.5585129808
  111      C      -4.3936874483     7.3938407006    -2.0338475100
  112      H      -4.6400370802     8.3292371221    -2.5268103824
  113      C      -3.4703778651     6.5155025147    -2.4502264776
  114      H      -2.9411342479     6.7741598704    -3.3621527718
  115      C      -3.1430886355     5.3881403162    -1.7174575961
  116      H      -2.3564133043     4.7623157691    -2.1297203272
  117      C      -8.4839054596     1.7241829617    -0.1614993203
  118      C      -7.5340000965     1.4289647073    -2.4108247711
  119      C      -7.1619130014    -3.0290173723    -2.0767529654
  120      C      -5.3707124067    -0.2832739446     3.3181481883
  121      C      -3.7167049966    -2.9520611770    -1.4225316358
  122      C      -7.6764957998     2.1998925765    -1.2402397913
  123      C      -4.1764967332    -2.5005266436     2.1069234388
  124      C      -8.8818220553    -1.6109370565    -1.3909584888
  125      C      -3.5787958044     0.9297057921    -2.3347685852
  126      C      -3.9923569621    -0.1699377447     2.8499119508
  127      C      -3.5450279989     2.4502215296    -0.4687735082
  128      C      -2.7514871111     0.3791388819    -1.3743382633
  129      C      -2.6798662035    -0.8402613476     1.1029387753
  130      C      -4.0219215293    -3.2757693578     0.9064642598
  131      C      -5.5249302687     2.3886546612    -2.0930707480
  132      C      -5.7788541868    -4.0285139221    -0.5479979286
  133      C      -4.4699242964     2.8355441020     0.6053341931
  134      C      -4.5740322205     2.0081249275     1.8982429485
  135      C      -4.9643200664    -3.5269089320    -1.6147104488
  136      C      -8.0225719540    -1.9605048635     1.9773206878
  137      C      -7.9752827643    -3.2876988058     0.1392083485
  138      C      -8.8724331618    -2.2759143500    -0.1124409692
  139      C      -9.0181393043    -0.1922401522    -1.4198496879
  140      C      -5.8794226790     1.8964531925     2.2436038819
  141      C      -4.1590668701     2.0698445127    -1.8242245733
  142      C      -8.2837714359     0.2638505470    -2.5588312980
  143      C      -3.4626827398    -1.2806495438     2.1824379681
  144      C      -6.2508533876     1.5015278153    -2.9045728026
  145      C      -2.6176189673    -1.0404354275    -1.2344415145
  146      C      -7.5443761358     0.1618434556     2.7566809204
  147      C      -8.0165719156    -1.9801782250    -2.3901147105
  148      C      -2.7421284266     1.1992357917    -0.1909606931
  149      C      -9.1344026871    -0.0850306824     0.9703400442
  150      C      -2.5430111142    -1.6358742045    -0.0259588580
  151      C      -4.3244090671     0.1133939041    -3.2016830932
  152      C      -6.1393213402    -3.4413092663     1.7955641302
  153      C      -5.4942313253    -2.5947477114     2.6594729254
  154      C      -4.2048372262    -1.2784479492    -3.1249965224
  155      C      -6.2524827776     0.7769825514     2.9434707596
  156      C      -3.6891581483     0.9350496038     2.0520877604
  157      C      -7.3624599294    -1.2089719588     2.9125449434
  158      C      -5.9351609496     2.9892637908     0.2378062247
  159      C      -6.3269229433    -0.7822419042    -3.6719496926
  160      C      -2.7782589602     0.5914533273     1.0246383611
  161      C      -3.3438688721    -1.8594142281    -2.1659466406
  162      C      -8.4066356367     0.7365996905     1.8478482496
  163      C      -5.8269131595    -2.9700327120    -2.5805448193
  164      C      -9.1648718748     0.5477302973    -0.2431257243
  165      C      -7.1013403264    -3.6885526045    -0.8812571567
  166      C      -5.6429677759     0.4191607472    -3.5003979556
  167      C      -5.4409853050    -1.8585264129    -3.4229493767
  168      C      -6.3905516497     2.8183004479    -1.0365111791
  169      C      -6.6950658601     2.4541105153     1.2774602530
  170      C      -7.4209649624    -3.1546745314     1.4361101632
  171      C      -7.6533478088    -0.8752325057    -3.1454187590
  172      C      -3.1849680008    -2.8830194561    -0.1357954515
  173      C      -6.0814781525    -1.5245786565     3.3505621800
  174      C      -5.2595058986    -3.9013092709     0.7509690964
  175      C      -7.9617688387     1.8401650079     1.1056042721
  176      C      -8.9655668843    -1.4509376619     1.0541290347
 ----------------------------------------------------------------
 Molecular Point Group                 C1    NOp =  1
 Largest Abelian Subgroup              C1    NOp =  1
 Nuclear Repulsion Energy = 34675.6407406388 hartrees
 There are      462 alpha and      462 beta electrons
 Requested basis set is 6-31G(d,p)
 There are 676 shells and 2360 basis functions

 Total QAlloc Memory Limit  20000 MB
 Mega-Array Size      4888 MB
 MEM_STATIC part      5000 MB
 A cutoff of  1.0D-08 yielded  37878 shell pairs
 There are    530806 function pairs
 
 -------------------------------------------------------
 OpenMP Integral Computing Module                       
 Release: version 1.0, May 2013, Q-Chem Inc. Pittsburgh 
 -------------------------------------------------------
 Integral Job Info:
 Integral job number is                      11
 Integral operator is                         1
 short-range coefficients                     0
 long-range coefficients              100000000
 Omega coefficients                           0
 if combine SR and LR in K                    0
 Integral screening is                        0
 Integral computing path is                   2
 max size of driver memory is            800000
 size of driver memory is                593474
 size of scratch memory is              2260544
 max col of scratch BK array               1296
 max len of scratch array in speh3          155
 max len of scratch index in speh4           18
 max int batch size is                      520
 min int batch size is                       52
 fixed nKL is                                52
 max L of basis functions is                  2
 order of int derivative is                   0
 number of shells is                        676
 number of basis is                        2360
 number of cartesian basis is              2360
 number of contracted shell pairs         37878
 number of primitive shell pairs         114348
 maxK2 (contraction) of shell pair           36
 max number of K2 of shell pair               1
 max number of CS2 of shell pair           7219
 max number of PS2 of shell pair          34512
 mem total for path MDJ                 1507784
 -------------------------------------------------------
 Smallest overlap matrix eigenvalue = 2.44E-04

 Scale SEOQF with 1.000000e-02/1.000000e-02/1.000000e-01

 Standard Electronic Orientation quadrupole field applied
 Nucleus-field energy     =    -0.0000002117 hartrees
 Guess from superposition of atomic densities
 Warning:  Energy on first SCF cycle will be non-variational
 A restricted hybrid HF-DFT SCF calculation will be
 performed using Pulay DIIS extrapolation
 Exchange:     0.2000 Hartree-Fock + 0.0800 Slater + 0.7200 B88
 Correlation:  0.1900 VWN1RPA + 0.8100 LYP
 Using SG-1 standard quadrature grid
 SCF converges when DIIS error is below 1.0E-05
 using 16 threads for integral computing 
 -------------------------------------------------------
 OpenMP BLAS3 based DFT computing Module                
 Release: version 1.0, May 2013, Q-Chem Inc. Pittsburgh 
 -------------------------------------------------------
 ---------------------------------------
  Cycle       Energy         DIIS Error
 ---------------------------------------
    1   -5858.5039931068      1.83E-02
    2   -5803.1180352257      1.29E-03
    3   -5802.4811318882      1.73E-03
    4   -5804.0276036918      5.90E-04
    5   -5804.2039339798      2.79E-04
    6   -5804.2514089148      1.27E-04
    7   -5804.2628416385      4.40E-05
    8   -5804.2638888488      2.38E-05
    9   -5804.2642722468      7.91E-06 Convergence criterion met
 ---------------------------------------
 SCF time:  CPU 8220.94 s  wall 845.50 s
 SCF   energy in the final basis set = -5804.2642722468
 Total energy in the final basis set = -5804.2642722468
 
 --------------------------------------------------------------
 
                    Orbital Energies (a.u.)
 --------------------------------------------------------------
 
 Alpha MOs
 -- Occupied --
-19.201 -19.191 -19.143 -19.142 -10.324 -10.314 -10.250 -10.246
-10.242 -10.236 -10.235 -10.234 -10.233 -10.231 -10.229 -10.227
-10.226 -10.225 -10.224 -10.223 -10.223 -10.222 -10.222 -10.222
-10.221 -10.221 -10.221 -10.220 -10.220 -10.220 -10.220 -10.220
-10.219 -10.219 -10.219 -10.219 -10.219 -10.218 -10.218 -10.218
-10.218 -10.218 -10.218 -10.217 -10.217 -10.217 -10.217 -10.216
-10.216 -10.216 -10.216 -10.216 -10.215 -10.215 -10.215 -10.215
-10.215 -10.215 -10.215 -10.215 -10.215 -10.215 -10.215 -10.215
-10.215 -10.215 -10.214 -10.214 -10.214 -10.214 -10.214 -10.214
-10.214 -10.214 -10.214 -10.214 -10.214 -10.214 -10.213 -10.213
-10.213 -10.213 -10.213 -10.213 -10.213 -10.213 -10.213 -10.213
-10.212 -10.212 -10.212 -10.212 -10.212 -10.212 -10.212 -10.212
-10.212 -10.212 -10.212 -10.212 -10.211 -10.211 -10.211 -10.211
-10.211 -10.211 -10.211 -10.211 -10.211 -10.210 -10.210 -10.210
-10.209 -10.209 -10.209 -10.209 -10.208 -10.208 -10.208 -10.208
-10.207 -10.207 -10.207 -10.207 -10.207 -10.206 -10.206 -10.205
-10.205 -10.205 -10.204 -10.204 -10.204 -10.204 -10.203 -10.202
-10.201 -10.201 -10.200 -10.199 -10.197 -10.197 -10.196 -10.195
-10.194 -10.194 -10.192 -10.190  -1.090  -1.082  -1.020  -1.008
 -0.984  -0.982  -0.969  -0.964  -0.964  -0.962  -0.960  -0.960
 -0.936  -0.933  -0.928  -0.927  -0.926  -0.924  -0.921  -0.921
 -0.920  -0.918  -0.897  -0.892  -0.892  -0.890  -0.887  -0.883
 -0.876  -0.873  -0.857  -0.854  -0.844  -0.842  -0.840  -0.838
 -0.837  -0.835  -0.822  -0.820  -0.811  -0.798  -0.797  -0.797
 -0.796  -0.795  -0.794  -0.793  -0.791  -0.789  -0.785  -0.783
 -0.773  -0.770  -0.768  -0.767  -0.766  -0.765  -0.760  -0.759
 -0.755  -0.750  -0.739  -0.737  -0.730  -0.730  -0.720  -0.716
 -0.716  -0.714  -0.713  -0.711  -0.710  -0.709  -0.708  -0.707
 -0.707  -0.706  -0.704  -0.703  -0.700  -0.700  -0.674  -0.671
 -0.660  -0.660  -0.657  -0.657  -0.646  -0.644  -0.634  -0.629
 -0.628  -0.627  -0.624  -0.622  -0.620  -0.619  -0.617  -0.616
 -0.615  -0.614  -0.614  -0.612  -0.611  -0.609  -0.608  -0.608
 -0.606  -0.605  -0.603  -0.602  -0.569  -0.568  -0.565  -0.561
 -0.560  -0.560  -0.559  -0.558  -0.557  -0.555  -0.554  -0.553
 -0.535  -0.534  -0.533  -0.531  -0.530  -0.527  -0.526  -0.524
 -0.523  -0.523  -0.520  -0.517  -0.516  -0.513  -0.513  -0.512
 -0.509  -0.504  -0.504  -0.494  -0.491  -0.487  -0.486  -0.486
 -0.484  -0.483  -0.483  -0.481  -0.478  -0.475  -0.475  -0.473
 -0.471  -0.471  -0.469  -0.469  -0.469  -0.468  -0.467  -0.466
 -0.465  -0.463  -0.461  -0.460  -0.459  -0.458  -0.458  -0.456
 -0.455  -0.453  -0.451  -0.448  -0.447  -0.446  -0.445  -0.444
 -0.443  -0.440  -0.439  -0.437  -0.436  -0.435  -0.433  -0.431
 -0.430  -0.429  -0.428  -0.427  -0.426  -0.425  -0.425  -0.424
 -0.424  -0.423  -0.422  -0.421  -0.420  -0.420  -0.419  -0.418
 -0.417  -0.416  -0.415  -0.414  -0.414  -0.413  -0.412  -0.411
 -0.410  -0.410  -0.409  -0.404  -0.402  -0.401  -0.396  -0.395
 -0.394  -0.393  -0.392  -0.390  -0.388  -0.387  -0.385  -0.382
 -0.378  -0.377  -0.375  -0.372  -0.370  -0.369  -0.368  -0.367
 -0.365  -0.364  -0.363  -0.363  -0.362  -0.361  -0.359  -0.358
 -0.358  -0.357  -0.356  -0.355  -0.355  -0.354  -0.353  -0.352
 -0.350  -0.350  -0.347  -0.347  -0.346  -0.345  -0.344  -0.343
 -0.342  -0.342  -0.341  -0.337  -0.336  -0.336  -0.335  -0.333
 -0.332  -0.331  -0.330  -0.328  -0.327  -0.325  -0.324  -0.320
 -0.305  -0.304  -0.302  -0.301  -0.289  -0.288  -0.274  -0.273
 -0.271  -0.270  -0.268  -0.268  -0.267  -0.265  -0.263  -0.263
 -0.263  -0.262  -0.259  -0.259  -0.257  -0.256  -0.255  -0.254
 -0.248  -0.248  -0.247  -0.244  -0.222  -0.216  -0.214  -0.212
 -0.211  -0.208  -0.207  -0.205  -0.203  -0.199
 -- Virtual --
 -0.120  -0.117  -0.116  -0.114  -0.112  -0.110  -0.080  -0.075
 -0.071  -0.067  -0.059  -0.056  -0.054  -0.049  -0.026  -0.022
 -0.020  -0.018  -0.017  -0.017  -0.016  -0.016  -0.014  -0.012
 -0.010  -0.010  -0.009  -0.009  -0.006  -0.005   0.003   0.004
  0.006   0.008   0.034   0.036   0.041   0.043   0.044   0.047
  0.049   0.052   0.057   0.058   0.062   0.064   0.065   0.071
  0.072   0.074   0.079   0.082   0.082   0.085   0.087   0.087
  0.094   0.094   0.098   0.100   0.101   0.102   0.103   0.103
  0.111   0.111   0.114   0.115   0.116   0.118   0.119   0.121
  0.121   0.125   0.126   0.129   0.131   0.131   0.133   0.136
  0.139   0.141   0.141   0.143   0.147   0.154   0.154   0.157
  0.158   0.159   0.159   0.163   0.164   0.165   0.167   0.171
  0.172   0.173   0.174   0.175   0.177   0.181   0.181   0.183
  0.183   0.184   0.186   0.187   0.188   0.190   0.192   0.197
  0.198   0.200   0.200   0.202   0.203   0.204   0.205   0.206
  0.207   0.209   0.211   0.213   0.213   0.215   0.216   0.219
  0.221   0.222   0.223   0.224   0.225   0.226   0.228   0.230
  0.230   0.233   0.234   0.237   0.237   0.238   0.239   0.241
  0.241   0.244   0.245   0.248   0.251   0.253   0.256   0.257
  0.260   0.262   0.267   0.271   0.272   0.274   0.276   0.281
  0.282   0.285   0.289   0.291   0.294   0.296   0.297   0.301
  0.308   0.310   0.312   0.312   0.314   0.315   0.317   0.318
  0.321   0.323   0.323   0.324   0.326   0.327   0.329   0.331
  0.332   0.338   0.338   0.341   0.342   0.345   0.346   0.348
  0.352   0.353   0.355   0.356   0.367   0.379   0.386   0.388
  0.390   0.396   0.398   0.400   0.403   0.404   0.406   0.410
  0.411   0.411   0.414   0.415   0.416   0.420   0.424   0.428
  0.430   0.432   0.434   0.441   0.443   0.445   0.446   0.449
  0.450   0.453   0.453   0.456   0.457   0.458   0.461   0.462
  0.464   0.466   0.470   0.472   0.472   0.473   0.474   0.477
  0.477   0.478   0.480   0.481   0.483   0.483   0.485   0.486
  0.488   0.490   0.491   0.492   0.493   0.493   0.494   0.496
  0.497   0.498   0.499   0.500   0.501   0.502   0.503   0.505
  0.505   0.507   0.507   0.508   0.509   0.510   0.511   0.513
  0.513   0.514   0.515   0.516   0.517   0.517   0.517   0.519
  0.519   0.521   0.522   0.523   0.523   0.525   0.525   0.526
  0.527   0.527   0.528   0.528   0.530   0.531   0.532   0.532
  0.533   0.533   0.534   0.535   0.536   0.537   0.538   0.539
  0.540   0.540   0.541   0.541   0.542   0.543   0.545   0.546
  0.546   0.547   0.548   0.548   0.549   0.550   0.550   0.551
  0.552   0.553   0.553   0.554   0.555   0.556   0.557   0.558
  0.558   0.561   0.561   0.562   0.563   0.563   0.564   0.565
  0.565   0.566   0.567   0.567   0.569   0.570   0.570   0.572
  0.573   0.574   0.574   0.575   0.576   0.577   0.578   0.579
  0.579   0.580   0.581   0.582   0.583   0.584   0.585   0.586
  0.586   0.586   0.587   0.588   0.590   0.591   0.592   0.592
  0.593   0.594   0.594   0.596   0.597   0.598   0.599   0.599
  0.601   0.602   0.603   0.604   0.604   0.606   0.607   0.608
  0.610   0.610   0.611   0.613   0.614   0.615   0.618   0.618
  0.619   0.620   0.621   0.622   0.623   0.625   0.626   0.627
  0.628   0.629   0.629   0.630   0.631   0.632   0.633   0.633
  0.634   0.636   0.636   0.637   0.637   0.638   0.640   0.642
  0.643   0.644   0.646   0.647   0.648   0.649   0.650   0.650
  0.652   0.652   0.654   0.654   0.655   0.656   0.656   0.658
  0.659   0.659   0.660   0.662   0.663   0.664   0.665   0.665
  0.666   0.667   0.667   0.667   0.668   0.669   0.670   0.671
  0.672   0.673   0.674   0.676   0.677   0.677   0.678   0.680
  0.681   0.682   0.683   0.683   0.685   0.686   0.686   0.687
  0.690   0.691   0.692   0.694   0.695   0.695   0.697   0.698
  0.700   0.700   0.701   0.702   0.703   0.705   0.706   0.707
  0.708   0.709   0.710   0.711   0.713   0.714   0.715   0.718
  0.718   0.719   0.721   0.722   0.723   0.725   0.725   0.727
  0.728   0.729   0.731   0.732   0.732   0.733   0.734   0.735
  0.736   0.738   0.738   0.741   0.742   0.743   0.744   0.747
  0.747   0.749   0.751   0.752   0.754   0.754   0.756   0.756
  0.757   0.760   0.762   0.763   0.764   0.764   0.767   0.768
  0.769   0.770   0.772   0.774   0.775   0.776   0.778   0.779
  0.780   0.780   0.782   0.783   0.785   0.786   0.787   0.788
  0.788   0.788   0.790   0.791   0.793   0.794   0.795   0.796
  0.797   0.798   0.800   0.801   0.803   0.803   0.804   0.806
  0.807   0.808   0.808   0.809   0.810   0.811   0.812   0.812
  0.813   0.813   0.814   0.815   0.816   0.816   0.817   0.818
  0.819   0.820   0.820   0.821   0.822   0.822   0.823   0.825
  0.826   0.827   0.828   0.830   0.831   0.831   0.833   0.834
  0.836   0.837   0.838   0.839   0.839   0.842   0.847   0.848
  0.848   0.850   0.852   0.855   0.856   0.859   0.861   0.867
  0.868   0.869   0.872   0.877   0.879   0.882   0.886   0.887
  0.893   0.896   0.897   0.901   0.904   0.906   0.909   0.910
  0.911   0.914   0.915   0.919   0.920   0.921   0.923   0.924
  0.928   0.930   0.931   0.932   0.934   0.934   0.937   0.938
  0.939   0.941   0.942   0.945   0.948   0.950   0.953   0.954
  0.956   0.958   0.960   0.962   0.967   0.970   0.975   0.975
  0.976   0.978   0.979   0.985   0.990   0.991   0.993   0.994
  0.996   0.999   1.000   1.003   1.007   1.009   1.010   1.010
  1.012   1.014   1.015   1.016   1.018   1.019   1.020   1.020
  1.022   1.025   1.027   1.028   1.030   1.031   1.034   1.038
  1.039   1.040   1.042   1.043   1.045   1.047   1.048   1.049
  1.051   1.053   1.054   1.054   1.057   1.057   1.061   1.063
  1.064   1.065   1.065   1.067   1.069   1.070   1.072   1.074
  1.075   1.076   1.078   1.080   1.080   1.081   1.082   1.085
  1.087   1.088   1.090   1.091   1.093   1.095   1.097   1.099
  1.099   1.102   1.102   1.105   1.105   1.108   1.111   1.111
  1.113   1.117   1.119   1.120   1.121   1.123   1.129   1.129
  1.130   1.132   1.133   1.139   1.139   1.142   1.144   1.146
  1.147   1.148   1.150   1.152   1.154   1.157   1.158   1.161
  1.162   1.163   1.164   1.165   1.167   1.167   1.169   1.171
  1.174   1.177   1.178   1.180   1.184   1.185   1.185   1.188
  1.188   1.191   1.193   1.194   1.194   1.197   1.201   1.204
  1.205   1.206   1.209   1.210   1.213   1.214   1.219   1.219
  1.220   1.223   1.225   1.231   1.232   1.235   1.237   1.240
  1.244   1.248   1.252   1.255   1.257   1.258   1.259   1.261
  1.265   1.265   1.270   1.270   1.271   1.274   1.276   1.276
  1.278   1.279   1.280   1.283   1.286   1.288   1.290   1.291
  1.293   1.295   1.297   1.300   1.301   1.304   1.306   1.310
  1.313   1.314   1.317   1.320   1.321   1.326   1.327   1.329
  1.334   1.337   1.339   1.340   1.343   1.346   1.347   1.349
  1.351   1.352   1.353   1.357   1.361   1.362   1.364   1.366
  1.368   1.371   1.376   1.377   1.379   1.384   1.387   1.389
  1.391   1.393   1.393   1.399   1.400   1.402   1.406   1.408
  1.409   1.411   1.412   1.417   1.419   1.422   1.425   1.429
  1.432   1.434   1.438   1.438   1.442   1.442   1.446   1.450
  1.451   1.453   1.454   1.457   1.458   1.462   1.465   1.467
  1.468   1.471   1.472   1.475   1.475   1.477   1.480   1.482
  1.485   1.486   1.487   1.490   1.492   1.493   1.496   1.497
  1.500   1.501   1.502   1.504   1.510   1.513   1.516   1.517
  1.519   1.520   1.524   1.525   1.530   1.535   1.539   1.540
  1.541   1.543   1.546   1.548   1.550   1.552   1.553   1.555
  1.559   1.560   1.561   1.566   1.568   1.569   1.572   1.574
  1.575   1.576   1.579   1.583   1.585   1.586   1.587   1.590
  1.591   1.593   1.594   1.599   1.602   1.606   1.611   1.616
  1.619   1.621   1.628   1.631   1.635   1.638   1.639   1.644
  1.645   1.652   1.655   1.659   1.662   1.667   1.671   1.672
  1.676   1.678   1.680   1.684   1.688   1.693   1.695   1.701
  1.704   1.705   1.705   1.709   1.712   1.715   1.716   1.718
  1.719   1.720   1.721   1.723   1.723   1.725   1.725   1.728
  1.731   1.735   1.736   1.740   1.742   1.742   1.746   1.748
  1.749   1.752   1.754   1.755   1.756   1.757   1.759   1.760
  1.760   1.763   1.764   1.766   1.768   1.770   1.771   1.771
  1.772   1.773   1.774   1.777   1.778   1.778   1.780   1.781
  1.783   1.785   1.785   1.787   1.787   1.789   1.789   1.790
  1.791   1.793   1.793   1.794   1.795   1.796   1.797   1.799
  1.800   1.801   1.802   1.804   1.805   1.807   1.808   1.808
  1.810   1.812   1.813   1.814   1.816   1.817   1.819   1.821
  1.824   1.825   1.827   1.831   1.834   1.835   1.836   1.837
  1.840   1.842   1.846   1.847   1.852   1.853   1.854   1.855
  1.857   1.858   1.858   1.860   1.862   1.865   1.865   1.866
  1.868   1.870   1.872   1.872   1.873   1.876   1.879   1.879
  1.880   1.881   1.883   1.887   1.889   1.892   1.898   1.899
  1.900   1.901   1.905   1.907   1.909   1.910   1.911   1.913
  1.915   1.918   1.923   1.924   1.928   1.929   1.930   1.931
  1.932   1.934   1.935   1.937   1.940   1.944   1.946   1.948
  1.951   1.954   1.954   1.958   1.960   1.962   1.964   1.966
  1.967   1.971   1.974   1.975   1.977   1.978   1.982   1.985
  1.985   1.985   1.988   1.990   1.990   1.993   1.993   1.995
  1.997   1.998   2.000   2.001   2.002   2.004   2.004   2.006
  2.008   2.009   2.012   2.013   2.014   2.016   2.017   2.018
  2.019   2.021   2.022   2.023   2.024   2.026   2.028   2.028
  2.029   2.030   2.031   2.032   2.033   2.036   2.037   2.039
  2.040   2.041   2.042   2.043   2.045   2.046   2.047   2.048
  2.051   2.051   2.052   2.053   2.055   2.057   2.058   2.060
  2.061   2.063   2.063   2.065   2.066   2.068   2.069   2.070
  2.071   2.072   2.073   2.074   2.077   2.078   2.078   2.080
  2.081   2.082   2.083   2.085   2.087   2.089   2.091   2.092
  2.094   2.095   2.096   2.097   2.099   2.102   2.103   2.104
  2.107   2.109   2.113   2.114   2.117   2.119   2.120   2.122
  2.123   2.126   2.128   2.134   2.137   2.141   2.144   2.147
  2.149   2.155   2.157   2.158   2.160   2.165   2.167   2.180
  2.183   2.184   2.190   2.194   2.197   2.201   2.204   2.207
  2.208   2.211   2.216   2.218   2.223   2.226   2.228   2.230
  2.232   2.232   2.237   2.240   2.241   2.242   2.248   2.250
  2.250   2.254   2.258   2.261   2.263   2.266   2.267   2.268
  2.270   2.271   2.274   2.277   2.279   2.280   2.281   2.282
  2.283   2.285   2.287   2.290   2.291   2.294   2.296   2.298
  2.300   2.302   2.305   2.308   2.311   2.314   2.314   2.318
  2.319   2.320   2.324   2.325   2.331   2.332   2.336   2.338
  2.339   2.343   2.344   2.346   2.349   2.350   2.351   2.353
  2.355   2.356   2.359   2.361   2.366   2.367   2.369   2.369
  2.370   2.372   2.374   2.375   2.376   2.378   2.379   2.382
  2.383   2.386   2.387   2.390   2.392   2.393   2.394   2.397
  2.397   2.399   2.400   2.405   2.406   2.409   2.409   2.410
  2.412   2.415   2.415   2.418   2.419   2.422   2.423   2.425
  2.428   2.429   2.432   2.438   2.442   2.444   2.445   2.447
  2.451   2.452   2.455   2.457   2.459   2.461   2.462   2.463
  2.465   2.468   2.470   2.471   2.472   2.475   2.477   2.479
  2.481   2.484   2.486   2.490   2.491   2.492   2.494   2.495
  2.497   2.500   2.501   2.502   2.505   2.505   2.506   2.510
  2.512   2.513   2.515   2.516   2.518   2.520   2.522   2.524
  2.525   2.526   2.528   2.529   2.532   2.535   2.539   2.541
  2.543   2.545   2.548   2.553   2.556   2.557   2.562   2.565
  2.567   2.569   2.572   2.573   2.576   2.581   2.583   2.585
  2.587   2.591   2.593   2.597   2.598   2.600   2.604   2.606
  2.607   2.608   2.611   2.613   2.616   2.617   2.618   2.620
  2.624   2.625   2.627   2.629   2.632   2.633   2.634   2.635
  2.637   2.638   2.640   2.641   2.644   2.645   2.647   2.648
  2.650   2.652   2.653   2.654   2.655   2.657   2.659   2.661
  2.662   2.663   2.664   2.666   2.669   2.669   2.671   2.672
  2.676   2.676   2.677   2.680   2.682   2.683   2.684   2.688
  2.688   2.692   2.693   2.696   2.697   2.699   2.702   2.705
  2.707   2.709   2.711   2.714   2.718   2.719   2.721   2.722
  2.725   2.728   2.729   2.732   2.737   2.739   2.741   2.742
  2.748   2.749   2.751   2.753   2.754   2.756   2.756   2.759
  2.761   2.762   2.764   2.770   2.771   2.773   2.776   2.778
  2.778   2.781   2.781   2.785   2.786   2.788   2.792   2.793
  2.794   2.798   2.800   2.802   2.805   2.808   2.811   2.819
  2.822   2.825   2.826   2.830   2.833   2.834   2.837   2.843
  2.844   2.846   2.850   2.851   2.853   2.856   2.859   2.862
  2.864   2.866   2.869   2.871   2.872   2.874   2.877   2.880
  2.881   2.885   2.887   2.887   2.890   2.892   2.893   2.895
  2.896   2.898   2.899   2.901   2.902   2.903   2.905   2.907
  2.909   2.910   2.912   2.914   2.915   2.916   2.917   2.919
  2.922   2.924   2.925   2.927   2.930   2.930   2.932   2.933
  2.935   2.939   2.941   2.944   2.948   2.950   2.951   2.952
  2.957   2.963   2.965   2.970   2.973   2.974   2.977   2.979
  2.985   2.986   2.991   2.995   2.996   2.998   2.999   3.003
  3.004   3.007   3.007   3.010   3.011   3.012   3.015   3.016
  3.018   3.022   3.028   3.033   3.034   3.039   3.043   3.045
  3.047   3.049   3.049   3.053   3.058   3.058   3.062   3.064
  3.064   3.072   3.076   3.078   3.078   3.089   3.095   3.103
  3.113   3.116   3.121   3.129   3.130   3.137   3.143   3.146
  3.149   3.157   3.158   3.164   3.170   3.177   3.182   3.189
  3.191   3.196   3.202   3.204   3.218   3.231   3.233   3.237
  3.246   3.249   3.258   3.263   3.263   3.268   3.281   3.291
  3.294   3.302   3.308   3.319   3.321   3.324   3.328   3.332
  3.337   3.342   3.346   3.356   3.358   3.365   3.370   3.389
  3.396   3.408   3.411   3.423   3.425   3.433   3.435   3.439
  3.443   3.452   3.457   3.461   3.470   3.486   3.487   3.491
  3.492   3.496   3.514   3.522   3.529   3.537   3.541   3.545
  3.548   3.557   3.571   3.573   3.576   3.593   3.596   3.600
  3.608   3.616   3.683   3.702   3.857   3.862   3.963   4.018
  4.073   4.079   4.083   4.086   4.086   4.090   4.093   4.098
  4.100   4.105   4.106   4.108   4.114   4.115   4.118   4.121
  4.127   4.131   4.135   4.142   4.146   4.149   4.150   4.152
  4.157   4.161   4.165   4.168   4.173   4.178   4.179   4.186
  4.190   4.195   4.204   4.208   4.219   4.224   4.229   4.233
  4.240   4.244   4.250   4.253   4.255   4.257   4.262   4.267
  4.268   4.273   4.280   4.286   4.288   4.296   4.299   4.303
  4.307   4.308   4.323   4.365   4.375   4.379   4.388   4.393
  4.395   4.400   4.401   4.402   4.412   4.412   4.416   4.418
  4.421   4.427   4.429   4.437   4.447   4.451   4.468   4.473
  4.479   4.481   4.486   4.491   4.535   4.537   4.549   4.553
  4.561   4.568   4.625   4.626   4.630   4.632   4.635   4.650
  4.658   4.670   4.676   4.690   4.692   4.696   4.697   4.700
  4.703   4.707   4.710   4.719   4.745   4.747   4.807   4.809
  4.838   4.843   4.850   4.862   4.874   4.877   4.883   4.886
  4.910   4.915   4.958   4.964   4.972   4.972   4.978   4.984
  4.986   5.000   5.007   5.019   5.166   5.171   5.177   5.185
  5.189   5.200   5.203   5.216   5.319   5.319   5.339   5.344
  5.354   5.364
 --------------------------------------------------------------
 
          Ground-State Mulliken Net Atomic Charges

     Atom                 Charge (a.u.)
  ----------------------------------------
      1 O                    -0.481747
      2 C                    -0.099388
      3 H                     0.126615
      4 H                     0.129289
      5 H                     0.138919
      6 O                    -0.450674
      7 C                     0.614870
      8 C                    -0.261984
      9 H                     0.125770
     10 H                     0.124606
     11 C                    -0.189345
     12 H                     0.103784
     13 H                     0.123079
     14 C                    -0.191303
     15 H                     0.121654
     16 H                     0.113874
     17 C                     0.012217
     18 C                     0.071590
     19 C                    -0.112561
     20 H                     0.091734
     21 C                    -0.087809
     22 H                     0.098209
     23 C                    -0.088877
     24 H                     0.086953
     25 C                    -0.071273
     26 H                     0.094468
     27 C                    -0.106868
     28 H                     0.094287
     29 C                     0.013996
     30 C                     0.003913
     31 C                    -0.000259
     32 C                    -0.020080
     33 C                     0.006778
     34 C                    -0.012718
     35 C                    -0.021694
     36 C                     0.014460
     37 C                     0.013919
     38 C                    -0.000445
     39 C                    -0.090543
     40 C                     0.009997
     41 C                    -0.005561
     42 C                     0.037837
     43 C                     0.003657
     44 C                    -0.014259
     45 C                    -0.082568
     46 C                     0.006685
     47 C                     0.030989
     48 C                    -0.007306
     49 C                     0.009403
     50 C                    -0.031349
     51 C                     0.023575
     52 C                     0.007171
     53 C                     0.042203
     54 C                    -0.050968
     55 C                    -0.003795
     56 C                     0.000113
     57 C                     0.001113
     58 C                    -0.029718
     59 C                     0.010149
     60 C                     0.014126
     61 C                     0.016059
     62 C                    -0.021823
     63 C                    -0.035586
     64 C                     0.024327
     65 C                    -0.020508
     66 C                    -0.019418
     67 C                     0.004853
     68 C                     0.011816
     69 C                     0.022374
     70 C                     0.062218
     71 C                     0.035605
     72 C                     0.015118
     73 C                     0.015050
     74 C                    -0.016146
     75 C                    -0.023395
     76 C                    -0.004965
     77 C                     0.010832
     78 C                    -0.019036
     79 C                     0.006232
     80 C                     0.005451
     81 C                    -0.005572
     82 C                    -0.023696
     83 C                    -0.023472
     84 C                    -0.009222
     85 C                     0.014391
     86 C                    -0.024242
     87 C                    -0.016178
     88 C                     0.025074
     89 O                    -0.458736
     90 C                    -0.096883
     91 H                     0.131971
     92 H                     0.126676
     93 H                     0.135502
     94 O                    -0.458106
     95 C                     0.571676
     96 C                    -0.249498
     97 H                     0.128158
     98 H                     0.128290
     99 C                    -0.195698
    100 H                     0.117995
    101 H                     0.113852
    102 C                    -0.169433
    103 H                     0.103896
    104 H                     0.130215
    105 C                     0.001977
    106 C                     0.066420
    107 C                    -0.108910
    108 H                     0.095296
    109 C                    -0.100805
    110 H                     0.091948
    111 C                    -0.078531
    112 H                     0.088312
    113 C                    -0.079365
    114 H                     0.087039
    115 C                    -0.096257
    116 H                     0.094515
    117 C                    -0.014967
    118 C                     0.008257
    119 C                     0.013950
    120 C                    -0.014340
    121 C                     0.009771
    122 C                    -0.000494
    123 C                    -0.015439
    124 C                    -0.013385
    125 C                     0.031491
    126 C                    -0.048353
    127 C                    -0.065970
    128 C                    -0.002362
    129 C                     0.004584
    130 C                     0.028435
    131 C                    -0.024049
    132 C                    -0.009484
    133 C                    -0.118277
    134 C                     0.016328
    135 C                     0.008020
    136 C                     0.008053
    137 C                    -0.010136
    138 C                    -0.009294
    139 C                    -0.004934
    140 C                     0.010625
    141 C                     0.024147
    142 C                    -0.027773
    143 C                    -0.002612
    144 C                     0.020918
    145 C                    -0.003786
    146 C                    -0.017335
    147 C                     0.031553
    148 C                     0.012415
    149 C                    -0.013090
    150 C                     0.009309
    151 C                    -0.007522
    152 C                    -0.006323
    153 C                     0.039461
    154 C                     0.003433
    155 C                     0.014613
    156 C                     0.013159
    157 C                     0.012647
    158 C                     0.038133
    159 C                    -0.022937
    160 C                     0.017325
    161 C                    -0.001564
    162 C                    -0.005855
    163 C                    -0.023708
    164 C                     0.022539
    165 C                     0.011079
    166 C                     0.017677
    167 C                    -0.016756
    168 C                    -0.004453
    169 C                     0.013837
    170 C                     0.003733
    171 C                    -0.004488
    172 C                    -0.023668
    173 C                    -0.035100
    174 C                    -0.022929
    175 C                     0.001021
    176 C                     0.008305
  ----------------------------------------
  Sum of atomic charges =     0.000000

 -----------------------------------------------------------------
                    Cartesian Multipole Moments
 -----------------------------------------------------------------
    Charge (ESU x 10^10)
                 0.0000
    Dipole Moment (Debye)
         X       0.9346      Y       4.6194      Z       2.0297
       Tot       5.1315
    Quadrupole Moments (Debye-Ang)
        XX    -817.0787     XY      -1.8062     YY    -770.1866
        XZ      16.3911     YZ       9.4929     ZZ    -810.9670
    Octopole Moments (Debye-Ang^2)
       XXX     271.0292    XXY     195.7248    XYY      71.0902
       YYY     588.3743    XXZ     253.1083    XYZ      52.8818
       YYZ      59.5105    XZZ       4.7526    YZZ     141.7843
       ZZZ      73.0823
    Hexadecapole Moments (Debye-Ang^3)
      XXXX -158406.5310   XXXY    1026.1454   XXYY  -32113.2613
      XYYY     620.8823   YYYY  -43259.5659   XXXZ    2409.2815
      XXYZ     805.2980   XYYZ     -26.6439   YYYZ     539.0704
      XXZZ  -30546.6156   XYZZ     -26.0416   YYZZ  -10347.4016
      XZZZ     258.8998   YZZZ     446.7708   ZZZZ  -19591.2182
 -----------------------------------------------------------------
Archival summary:
1\1\mn251\SP\ProcedureUnspecified\6-31G**\428\afmv_a\FriOct1205:23:512018FriOct1205:23:512018\0\\#,ProcedureUnspecified,6-31G**,\\0,1\C\C,1,1.39777\C,2,1.39809,1,118.674\C,3,1.3999,2,122.67,1,-138.062,0\C,4,1.40229,3,122.564,2,7.22021,0\C,5,1.4037,4,115.838,3,-3.85316,0\C,6,1.38818,5,108.76,4,142.997,0\C,7,1.35477,6,109.24,5,2.55023,0\C,8,1.40808,7,116.983,6,-136.972,0\C,9,1.33511,8,123.133,7,-9.49061,0\C,10,1.40807,9,108.155,8,148.282,0\C,11,1.37755,10,107.566,9,2.1175,0\C,12,1.35217,11,108.436,10,-1.14024,0\C,11,1.40251,10,117.915,9,-144.299,0\C,1,1.41031,2,109.001,3,140.774,0\C,15,1.39402,1,119.663,2,-143.831,0\C,10,1.41146,9,120.846,8,2.38859,0\C,17,1.40822,10,117.831,9,1.6788,0\C,18,1.39229,17,107.297,10,138.767,0\C,19,1.38481,18,123.967,17,-142.483,0\C,14,1.41161,11,122.276,10,1.12642,0\C,21,1.38685,14,105.395,11,142.929,0\C,21,1.40226,14,119.325,11,-2.73814,0\C,23,1.36787,21,119.991,14,134.533,0\C,24,1.37642,23,115.794,21,1.09647,0\C,25,1.38278,24,126.45,23,2.52188,0\C,26,1.36395,25,111.234,24,-143.258,0\C,27,1.39567,26,106.697,25,-7.1116,0\C,22,1.40621,21,108.343,14,-0.214853,0\C,29,1.39649,22,112.281,21,1.69821,0\C,29,1.40808,22,120.635,21,-144.798,0\C,31,1.40485,29,117.577,22,8.25565,0\C,32,1.4034,31,108.988,29,138.468,0\C,33,1.40386,32,109.726,31,-2.52374,0\C,34,1.37359,33,119.17,32,-144.811,0\C,35,1.3947,34,118.361,33,138.672,0\C,36,1.38071,35,118.262,34,2.579,0\C,34,1.39932,33,104.121,32,1.62147,0\C,38,1.3785,34,114.276,33,-140.082,0\C,39,1.3595,38,122.55,34,141.48,0\C,35,1.39934,34,122.419,33,0.829679,0\C,41,1.38161,35,109.833,34,136.526,0\C,41,1.38845,35,117.454,34,0.410772,0\C,43,1.34539,41,123.111,35,-0.825399,0\C,42,1.3976,41,109.283,35,4.8119,0\C,45,1.40524,42,121.086,41,-146.023,0\C,46,1.38265,45,120.051,42,-3.16476,0\C,46,1.39246,45,117.119,42,134.598,0\C,47,1.394,46,121.338,45,2.86737,0\C,49,1.38955,47,119.366,46,-3.72395,0\C,40,1.40601,39,107.931,38,-146.233,0\C,51,1.39452,40,107.797,39,-1.57181,0\C,13,1.41182,12,120.692,11,-147.215,0\C,28,1.41352,27,118.305,26,146.199,0\C,54,1.38069,28,118.131,27,-141.605,0\C,50,1.4168,49,110.215,47,143.883,0\C,56,1.4106,50,120.744,49,-144.452,0\C,2,1.41925,1,109.462,3,-135.118,0\C,5,1.47173,4,125.041,3,141.475,0\C,59,1.44872,5,117.613,4,-6.28578,0\C,59,1.51323,5,126.28,4,67.1288,0\C,61,1.55244,59,118.734,5,149.805,0\H,62,1.09684,61,110.904,59,-114.455,0\H,62,1.09695,61,112.81,59,8.63013,0\C,62,1.53692,61,109.441,59,125.679,0\H,65,1.09751,62,113.276,61,42.9014,0\H,65,1.09795,62,105.109,61,-71.1631,0\C,65,1.52672,62,108.887,61,169.531,0\H,68,1.09712,65,112.135,62,161.862,0\H,68,1.0976,65,110.329,62,53.8963,0\C,68,1.46772,65,112.119,62,-68.9477,0\O,71,1.19057,68,121.847,65,121.581,0\O,71,1.39118,68,109.385,65,-55.8578,0\C,73,1.48025,71,115.102,68,157.443,0\H,74,1.09688,73,110.895,71,-67.0432,0\H,74,1.09723,73,113.737,71,51.6454,0\H,74,1.09725,73,106.8,71,179.852,0\C,61,1.573,59,118.522,5,-0.645184,0\C,78,1.41323,61,121.444,59,59.8721,0\H,79,1.08649,78,121.045,61,-4.11544,0\C,79,1.37297,78,120.552,61,174.799,0\H,81,1.08619,79,119.039,78,-174.48,0\C,81,1.38048,79,120.748,78,-2.48102,0\H,83,1.0862,81,120.586,79,-174.458,0\C,83,1.39068,81,122.149,79,8.68767,0\H,85,1.08653,83,127.414,81,164.155,0\C,85,1.41123,83,117.364,81,-8.7092,0\H,87,1.08529,85,112.369,83,-177.275,0\H,3,2.75937,2,84.9172,1,109.168,0\C,89,1.09685,3,143.306,2,-85.7645,0\H,90,1.09718,89,104.946,3,-20.8726,0\C,90,1.57878,89,108.283,3,105.103,0\H,92,1.09666,90,112.396,89,-27.7684,0\H,92,1.09764,90,109.774,89,90.5519,0\C,92,1.56518,90,108.941,89,-154.07,0\H,95,1.09673,92,110.401,90,-77.4001,0\H,95,1.09697,92,112.166,90,48.4386,0\C,95,1.54606,92,112.036,90,166.815,0\C,98,1.49647,95,119.798,92,-134.143,0\C,99,1.46888,98,63.3243,95,107.335,0\C,100,1.51221,99,114.644,98,-120.478,0\C,101,1.35955,100,121.33,99,7.29401,0\C,102,1.41543,101,123.891,100,-9.61872,0\C,103,1.39623,102,111.249,101,-149.76,0\C,103,1.39934,102,120.883,101,4.15877,0\C,105,1.35491,103,121.199,102,-135.008,0\C,106,1.37193,105,117.34,103,-10.2219,0\C,106,1.38191,105,110.928,103,135.98,0\C,108,1.39453,106,110.76,105,0.967901,0\C,109,1.364,108,117.806,106,-140.075,0\C,104,1.39991,103,105.861,102,10.594,0\C,111,1.4043,104,109.185,103,-8.59513,0\C,112,1.38785,111,120.031,104,151.053,0\C,113,1.34928,112,118.041,111,-137.215,0\C,113,1.40696,112,121.78,111,-0.785108,0\C,115,1.39322,113,117.748,112,-2.92535,0\C,115,1.39399,113,106.858,112,-136.372,0\C,117,1.37315,115,110.901,113,-5.16559,0\C,117,1.38706,115,119.441,113,140.818,0\C,116,1.39538,115,125.156,113,-138.588,0\C,120,1.40471,116,118.135,115,6.95403,0\C,121,1.40556,120,123.039,116,132.077,0\C,122,1.3667,121,111.458,120,-138.256,0\C,123,1.38878,122,126.093,121,142.883,0\C,124,1.37234,123,115.273,122,1.08718,0\C,124,1.38684,123,124.293,122,-140.802,0\C,122,1.40207,121,118.886,120,4.39153,0\C,127,1.37547,122,118.928,121,-141.691,0\C,119,1.40961,117,118.791,115,-143.008,0\C,118,1.41371,117,121.933,115,145.002,0\C,130,1.39762,118,120.845,117,4.70235,0\C,130,1.39907,118,119.872,117,-136.594,0\C,132,1.38612,130,108.214,118,143.31,0\C,133,1.37697,132,120.006,130,-141.047,0\C,134,1.37678,133,121.681,132,136.552,0\C,133,1.39305,132,107.658,130,2.78492,0\C,135,1.3934,134,120.496,133,3.08153,0\C,134,1.40446,133,121.222,132,-6.29564,0\C,132,1.40494,130,119.924,118,-0.635008,0\C,139,1.37742,132,119.083,130,141.977,0\C,139,1.38202,132,121,130,1.87473,0\C,135,1.40887,134,111.309,133,-144.253,0\C,111,1.41539,104,121.228,103,138.855,0\C,127,1.41666,122,116.696,121,-4.79146,0\C,144,1.36161,127,126.172,122,3.42036,0\C,145,1.37082,144,118.641,127,-139.182,0\C,146,1.40276,145,125.776,144,-8.17077,0\C,147,1.3901,146,113.813,145,11.2213,0\C,148,1.36938,147,122.331,146,-5.65203,0\C,148,1.39159,147,112.297,146,134.936,0\C,150,1.37834,148,124.499,147,-150.555,0\C,151,1.40239,150,118.599,148,136.155,0\C,152,1.37537,151,107.507,150,-142.669,0\C,153,1.36177,152,108.537,151,3.64722,0\C,154,1.36887,153,109.577,152,-2.13722,0\C,155,1.37885,154,120.964,153,139.959,0\C,154,1.39777,153,117.085,152,138.85,0\C,107,1.429,106,124.847,105,0.832197,0\C,98,1.53541,95,110.934,92,79.1292,0\C,159,1.40638,98,117.019,95,-87.9616,0\H,160,1.0865,159,124.035,98,2.11033,0\C,160,1.38384,159,119.886,98,-178.556,0\H,162,1.08564,160,121.573,159,-177.058,0\C,162,1.34065,160,122.151,159,-1.4892,0\H,164,1.08566,162,125.431,160,-175.264,0\C,159,1.43262,98,123.334,95,99.0721,0\H,166,1.08528,159,120.633,98,4.43663,0\C,166,1.41371,159,119.046,98,175.667,0\H,168,1.08509,166,119.607,159,172.598,0\C,90,1.60831,89,106.747,3,-132.889,0\O,170,1.22927,90,123.008,89,-2.08774,0\O,170,1.38358,90,109.364,89,176.58,0\C,172,1.47611,170,118.372,90,-170.154,0\H,173,1.09645,172,117.947,170,71.9553,0\H,173,1.09674,172,110.53,170,-48.5961,0\H,173,1.09755,172,107.25,170,-162.796,0\\\@

 Total job time:  860.94s(wall), 8247.02s(cpu) 
 Fri Oct 12 05:23:51 2018

        *************************************************************
        *                                                           *
        *  Thank you very much for using Q-Chem.  Have a nice day.  *
        *                                                           *
        *************************************************************


