
Running Job 1 of 1 ./7/2.qcin
qchem ./7/2.qcin_28593.0 /tmpu/cab_g/afmv_a/scratch_qchem/qchem28593/ 1
/tmpu/appuserlic/qchem4.4/serial-multicore/exe/qcprog.exe_s ./7/2.qcin_28593.0 /tmpu/cab_g/afmv_a/scratch_qchem/qchem28593/
Check license passed

                  Welcome to Q-Chem
     A Quantum Leap Into The Future Of Chemistry


 Q-Chem 4.4, Q-Chem, Inc., Pleasanton, CA (2016)

 Y. Shao,  Z. Gan,  E. Epifanovsky,  A. T. B. Gilbert,  M. Wormit,  
 J. Kussmann,  A. W. Lange,  A. Behn,  J. Deng,  X. Feng,  D. Ghosh,  
 M. Goldey,  P. R. Horn,  L. D. Jacobson,  I. Kaliman,  F. Rob,  
 R. Z. Khaliullin,  T. Kus,  A. Landau,  J. Liu,  E. I. Proynov,  Y. M. Rhee,  
 R. M. Richard,  M. A. Rohrdanz,  R. P. Steele,  E. J. Sundstrom,  
 H. L. Woodcock III,  P. M. Zimmerman,  D. Zuev,  B. Albrecht,  E. Alguire,  
 B. Austin,  S. A. Baeppler,  G. J. O. Beran,  Y. A. Bernard,  E. Berquist,  
 K. Brandhorst,  K. B. Bravaya,  S. T. Brown,  D. Casanova,  C.-M. Chang,  
 Y. Chen,  S. H. Chien,  K. D. Closser,  M. P. Coons,  D. L. Crittenden,  
 S. Dasgupta,  M. Diedenhofen,  R. A. DiStasio Jr.,  H. Do,  A. D. Dutoi,  
 R. G. Edgar,  P.-T. Fang,  S. Fatehi,  Q. Feng,  L. Fusti-Molnar,  
 A. Ghysels,  A. Golubeva-Zadorozhnaya,  J. Gomes,  A. Gunina,  
 M. W. D. Hanson-Heine,  P. H. P. Harbach,  A. W. Hauser,  J. E. Herr,  
 E. G. Hohenstein,  Z. C. Holden,  K. Hui,  T.-C. Jagau,  H. Ji,  B. Kaduk,  
 K. Khistyaev,  Jaehoon Kim,  Jihan Kim,  R. A. King,  P. Klunzinger,  
 K. Koh,  D. Kosenkov,  T. Kowalczyk,  C. M. Krauter,  A. Kunitsa,  
 K. U. Lao,  A. Laurent,  K. V. Lawler,  J. Lee,  D. Lefrancois,  S. Lehtola,  
 S. V. Levchenko,  C. Y. Lin,  Y.-S. Lin,  F. Liu,  E. Livshits,  
 R. C. Lochan,  A. Luenser,  P. Manohar,  S. F. Manzer,  S.-P. Mao,  Y. Mao,  
 N. Mardirossian,  A. V. Marenich,  L. A. Martinez-Martinez,  S. A. Maurer,  
 N. J. Mayhall,  J.-M. Mewes,  A. F. Morrison,  K. Nanda,  T. S. Nguyen-Beck,  
 C. M. Oana,  R. Olivares-Amaya,  D. P. O'Neill,  J. A. Parkhill,  
 T. M. Perrine,  R. Peverati,  P. A. Pieniazek,  F. Plasser,  A. Prociuk,  
 D. R. Rehn,  E. Rosta,  N. J. Russ,  N. Sergueev,  S. M. Sharada,  
 S. Sharma,  D. W. Small,  A. Sodt,  T. Stauch,  T. Stein,  D. Stuck,  
 Y.-C. Su,  A. J. W. Thom,  T. Tsuchimochi,  L. Vogt,  O. Vydrov,  T. Wang,  
 M. A. Watson,  J. Wenzel,  A. White,  C. F. Williams,  V. Vanovschi,  
 K. Yao,  S. Yeganeh,  S. R. Yost,  Z.-Q. You,  I. Y. Zhang,  X. Zhang,  
 Y. Zhao,  B. R. Brooks,  G. K. L. Chan,  D. M. Chipman,  C. J. Cramer,  
 W. A. Goddard III,  M. S. Gordon,  W. J. Hehre,  A. Klamt,  
 H. F. Schaefer III,  M. W. Schmidt,  C. D. Sherrill,  D. G. Truhlar,  
 A. Warshel,  X. Xu,  A. Aspuru-Guzik,  R. Baer,  A. T. Bell,  N. A. Besley,  
 J.-D. Chai,  A. Dreuw,  B. D. Dunietz,  T. R. Furlani,  S. R. Gwaltney,  
 C.-P. Hsu,  Y. Jung,  J. Kong,  D. S. Lambrecht,  W. Liang,  C. Ochsenfeld,  
 V. A. Rassolov,  L. V. Slipchenko,  J. E. Subotnik,  T. Van Voorhis,  
 J. M. Herbert,  A. I. Krylov,  P. M. W. Gill,  M. Head-Gordon

 Contributors to earlier versions of Q-Chem not listed above: 
 R. D. Adamson,  J. Baker,  E. F. C. Byrd,  A. K. Chakraborty,  C.-L. Cheng,  
 H. Dachsel,  R. J. Doerksen,  G. Hawkins,  A. Heyden,  S. Hirata,  
 G. Kedziora,  F. J. Keil,  C. Kelley,  P. P. Korambath,  W. Kurlancheek,  
 A. M. Lee,  M. S. Lee,  D. Liotard,  I. Lotan,  P. E. Maslen,  N. Nair,  
 D. Neuhauser,  R. Olson,  B. Peters,  J. Ritchie,  N. E. Schultz,  
 N. Shenvi,  A. C. Simmonett,  K. S. Thanthiriwatte,  Q. Wu,  W. Zhang

 Please cite Q-Chem as follows:
 Y. Shao et al., Mol. Phys. 113, 184-215 (2015)
 DOI: 10.1080/00268976.2014.952696

 Q-Chem 4.4.2 for Intel X86 Linux

 Parts of Q-Chem use Armadillo 5.200.1 (Boston Tea Smuggler).
 http://arma.sourceforge.net/

 Q-Chem begins on Fri Oct 12 08:16:21 2018  

Host: 
0

     Scratch files written to /tmpu/cab_g/afmv_a/scratch_qchem/qchem28593//
 Dec716 11556_ 22328  22283 4050   
Processing $rem in /tmpu/appuserlic/qchem4.4/serial-multicore/config/preferences.
 MEM_TOTAL  2000 
FILE_GEOM_ORG=        593

Checking the input file for inconsistencies... 	...done.

--------------------------------------------------------------
User input:
--------------------------------------------------------------
$comment
SP
$end

$rem
MEM_STATIC 5000
MEM_TOTAL 20000
JOBTYPE SP
EXCHANGE B3LYP
BASIS 6-31g(d,p)
$end

$molecule
0 1
O          -7.545000    -29.149000      3.478000
C          -7.223000    -29.496000      2.072000
H          -6.378000    -30.195000      2.073000
H          -7.157000    -28.595000      1.450000
H          -8.009000    -30.151000      1.675000
O          -9.154000    -27.664000      2.872000
C          -8.600000    -28.376000      3.733000
C          -9.014000    -28.340000      5.228000
H          -8.118000    -27.864000      5.646000
H          -8.875000    -29.370000      5.578000
C         -10.355000    -27.689000      5.603000
H         -10.382000    -27.818000      6.692000
H         -10.264000    -26.619000      5.382000
C         -11.576000    -28.402000      4.965000
H         -11.537000    -28.161000      3.895000
H         -11.521000    -29.494000      5.056000
C         -12.958000    -27.812000      5.566000
C         -13.442000    -28.606000      6.791000
C         -14.449000    -29.580000      6.559000
H         -14.868000    -29.807000      5.583000
C         -14.854000    -30.349000      7.663000
H         -15.720000    -30.991000      7.532000
C         -14.258000    -30.143000      8.886000
H         -14.452000    -30.822000      9.711000
C         -13.227000    -29.265000      9.078000
H         -12.640000    -29.258000      9.991000
C         -12.855000    -28.468000      8.056000
H         -11.983000    -27.834000      8.188000
C         -17.878000    -26.017000      4.055000
C         -17.526000    -24.753000      6.093000
C         -16.839000    -20.823000      4.107000
C         -14.044000    -25.406000      0.799000
C         -13.335000    -20.997000      4.270000
C         -17.416000    -25.905000      5.343000
C         -12.997000    -22.803000      1.139000
C         -18.468000    -22.487000      3.657000
C         -13.573000    -24.199000      6.646000
C         -12.878000    -25.235000      1.549000
C         -13.228000    -26.271000      5.535000
C         -12.508000    -24.031000      5.722000
C         -11.804000    -23.869000      3.031000
C         -13.135000    -21.638000      1.897000
C         -15.485000    -25.707000      6.501000
C         -15.089000    -20.560000      2.691000
C         -13.961000    -27.229000      4.589000
C         -13.669000    -26.872000      3.162000
C         -14.647000    -20.439000      3.979000
C         -16.970000    -23.513000      0.612000
C         -17.110000    -21.579000      1.875000
C         -18.091000    -22.478000      2.332000
C         -18.662000    -23.737000      4.236000
C         -14.864000    -27.028000      2.456000
C         -14.077000    -25.527000      6.482000
C         -18.186000    -23.662000      5.551000
C         -12.355000    -23.977000      1.730000
C         -16.273000    -24.649000      6.780000
C         -12.308000    -22.767000      5.114000
C         -16.282000    -25.829000      0.925000
C         -17.843000    -21.677000      4.594000
C         -12.310000    -25.240000      5.056000
C         -18.218000    -24.877000      2.131000
C         -11.993000    -22.715000      3.756000
C         -14.475000    -23.120000      6.896000
C         -15.066000    -22.020000      0.697000
C         -14.170000    -23.024000      0.395000
C         -14.224000    -21.856000      6.310000
C         -15.029000    -26.330000      1.217000
C         -12.685000    -25.959000      2.728000
C         -16.080000    -24.579000      0.289000
C         -15.481000    -27.278000      4.636000
C         -16.474000    -22.235000      6.491000
C         -12.002000    -25.149000      3.664000
C         -13.099000    -21.649000      5.461000
C         -17.340000    -25.985000      1.818000
C         -15.676000    -20.565000      4.912000
C         -18.540000    -24.916000      3.495000
C         -16.433000    -20.798000      2.766000
C         -15.802000    -23.350000      7.024000
C         -15.493000    -21.345000      6.092000
C         -16.164000    -26.555000      5.623000
C         -15.960000    -27.290000      3.328000
C         -16.438000    -22.175000      0.757000
C         -17.680000    -22.348000      5.797000
C         -12.628000    -21.620000      3.227000
C         -14.704000    -24.337000      0.288000
C         -14.380000    -21.146000      1.630000
C         -17.179000    -26.684000      2.995000
C         -18.026000    -23.636000      1.518000
O          -8.112000    -27.974000     -3.123000
C          -7.565000    -29.189000     -3.808000
H          -6.584000    -29.439000     -3.386000
H          -7.400000    -29.035000     -4.881000
H          -8.182000    -30.055000     -3.537000
O          -8.140000    -28.943000     -1.029000
C          -8.404000    -28.044000     -1.725000
C          -9.001000    -26.698000     -1.220000
H          -8.261000    -25.888000     -1.245000
H          -9.279000    -26.818000     -0.166000
C         -10.181000    -26.189000     -1.947000
H          -9.901000    -25.979000     -2.987000
H         -10.914000    -27.004000     -1.978000
C         -10.814000    -24.926000     -1.285000
H         -11.882000    -24.891000     -1.533000
H         -10.734000    -25.034000     -0.197000
C         -10.147000    -23.627000     -1.777000
C          -8.908000    -23.316000     -1.009000
C          -8.980000    -23.288000      0.404000
H          -9.924000    -23.413000      0.927000
C          -7.901000    -22.965000      1.204000
H          -7.985000    -22.798000      2.274000
C          -6.670000    -22.666000      0.638000
H          -5.802000    -22.438000      1.251000
C          -6.557000    -22.675000     -0.756000
H          -5.566000    -22.407000     -1.109000
C          -7.629000    -23.078000     -1.591000
H          -7.425000    -23.144000     -2.656000
C         -10.953000    -18.260000     -2.638000
C          -9.283000    -18.873000     -4.245000
C         -11.919000    -18.462000     -7.911000
C         -15.066000    -21.343000     -3.100000
C         -12.526000    -21.851000     -8.068000
C          -9.869000    -19.055000     -3.005000
C         -15.313000    -22.035000     -5.766000
C         -11.863000    -17.024000     -5.937000
C          -9.647000    -22.635000     -5.382000
C         -14.566000    -22.586000     -3.523000
C         -10.282000    -23.180000     -3.165000
C         -10.733000    -23.486000     -5.563000
C         -13.481000    -23.635000     -5.169000
C         -14.744000    -21.816000     -7.042000
C          -9.023000    -21.063000     -3.731000
C         -13.827000    -19.807000     -8.120000
C         -11.046000    -22.469000     -2.043000
C         -12.564000    -22.395000     -2.077000
C         -12.650000    -20.543000     -8.485000
C         -14.895000    -18.210000     -4.514000
C         -13.993000    -17.910000     -6.614000
C         -13.222000    -17.111000     -5.734000
C         -10.995000    -17.148000     -4.773000
C         -13.001000    -21.078000     -1.743000
C          -9.348000    -22.383000     -4.019000
C          -9.840000    -17.919000     -5.168000
C         -14.685000    -22.923000     -4.907000
C          -8.814000    -20.095000     -4.714000
C         -11.563000    -23.354000     -6.651000
C         -14.391000    -19.240000     -2.446000
C         -11.181000    -17.697000     -6.983000
C         -11.219000    -23.798000     -4.246000
C         -12.904000    -17.456000     -3.384000
C         -12.963000    -23.359000     -6.452000
C          -9.320000    -21.714000     -6.437000
C         -15.452000    -19.785000     -6.289000
C         -15.821000    -20.754000     -5.328000
C         -10.119000    -21.581000     -7.509000
C         -14.235000    -20.621000     -2.201000
C         -13.324000    -23.083000     -3.088000
C         -15.219000    -19.180000     -3.542000
C         -10.760000    -21.018000     -1.928000
C          -9.554000    -19.516000     -6.951000
C         -12.618000    -23.758000     -4.106000
C         -11.271000    -22.376000     -7.619000
C         -13.207000    -18.433000     -2.393000
C         -11.534000    -19.724000     -8.409000
C         -11.511000    -17.297000     -3.488000
C         -13.319000    -18.557000     -7.692000
C          -8.891000    -20.454000     -6.084000
C         -10.322000    -20.232000     -7.849000
C          -9.764000    -20.404000     -2.682000
C         -11.890000    -20.239000     -1.572000
C         -15.026000    -18.538000     -5.905000
C          -9.974000    -18.278000     -6.494000
C         -13.551000    -22.531000     -7.368000
C         -15.618000    -20.447000     -3.963000
C         -14.855000    -20.437000     -7.375000
C         -11.984000    -18.878000     -1.938000
C         -13.758000    -17.374000     -4.437000
$end

--------------------------------------------------------------
 ----------------------------------------------------------------
             Standard Nuclear Orientation (Angstroms)
    I     Atom           X                Y                Z
 ----------------------------------------------------------------
    1      O       4.7592992940    -7.2769401891    -0.6212658468
    2      C       3.6377120914    -7.9106232763     0.1145445174
    3      H       3.7990321181    -8.9952967904     0.1238298125
    4      H       2.6715111165    -7.5275306351    -0.2357934685
    5      H       3.7438031370    -7.6950931899     1.1853953342
    6      O       3.8572682475    -5.1986428564    -0.4528550744
    7      C       4.8260190686    -5.9477963999    -0.6883796270
    8      C       6.1852306243    -5.4057213992    -1.2045342941
    9      H       6.1586858455    -5.8100504967    -2.2243035599
   10      H       6.9357355734    -6.0625722035    -0.7484527856
   11      C       6.4665261422    -3.8990244956    -1.0885848558
   12      H       7.4757086472    -3.8156444795    -1.5103542770
   13      H       5.7658006032    -3.3901413738    -1.7609267981
   14      C       6.4729414916    -3.3932068679     0.3778261953
   15      H       5.4264936997    -3.4201064786     0.7075615891
   16      H       7.0432195214    -4.0493133178     1.0472119548
   17      C       6.9861349444    -1.8599814463     0.4490812770
   18      C       8.5058228596    -1.7678558552     0.6667473420
   19      C       8.9436892547    -1.5343184064     1.9972668947
   20      H       8.2809747477    -1.4445260989     2.8530781027
   21      C      10.3318862224    -1.5070904575     2.2126034163
   22      H      10.6779923689    -1.1862030650     3.1906232610
   23      C      11.1848648927    -1.7219675536     1.1544747750
   24      H      12.2495171092    -1.8493505943     1.3264957587
   25      C      10.7518442839    -2.0346987667    -0.1046524389
   26      H      11.4290368375    -2.3941845143    -0.8730060311
   27      C       9.4281982245    -2.0089949729    -0.3603425334
   28      H       9.0854943530    -2.3391927925    -1.3367069409
   29      C       5.7863910136     2.9715975837     2.6689922161
   30      C       6.9066756876     3.6592453070     0.6325377340
   31      C       3.2471116165     5.0962629539    -1.4659465027
   32      C       1.9514940556    -0.1970730157     1.7059216297
   33      C       2.8018878519     2.1718147485    -3.3591552850
   34      C       6.7644472883     2.8199898458     1.7174918129
   35      C       0.8511596077     0.4792544677    -0.8078928499
   36      C       3.9312457590     5.4143878146     0.7825627920
   37      C       6.3798531506     0.8336899484    -2.1919319384
   38      C       2.3017666888    -0.9534235636     0.5849667104
   39      C       6.3024877637    -0.7657970448    -0.4363163895
   40      C       5.2984298513    -0.0499030198    -2.4488601663
   41      C       2.7554681773    -0.8628460390    -1.6514828579
   42      C       0.9996813656     1.3496526756    -1.8901041265
   43      C       7.3107441879     1.5084016079    -0.0404117657
   44      C       1.5648841093     3.6495888611    -1.9285150742
   45      C       6.0614419953    -0.8341622483     1.0760301768
   46      C       4.6038426673    -1.0446229813     1.3591423077
   47      C       2.5426094691     3.5193545314    -2.8751095703
   48      C       1.4760281279     3.2353135860     2.1213110469
   49      C       1.7096768198     4.6084792037     0.2733528560
   50      C       2.7058791699     4.9490977978     1.2066110469
   51      C       5.0448639392     4.9308851556     1.4618688552
   52      C       4.2903666040    -0.2507136922     2.4646909491
   53      C       6.9436933056     0.4653231431    -0.9306285742
   54      C       6.0606830599     4.7501565527     0.5148341747
   55      C       1.7812267244    -0.6382963700    -0.6473429087
   56      C       7.2165293559     2.7862276563    -0.4604512348
   57      C       4.1520778784     0.4331154607    -3.1270417804
   58      C       2.6809332032     1.3947016370     3.1679821568
   59      C       4.2530377955     5.4849400601    -0.5650893389
   60      C       5.2385277776    -0.9827093929    -1.4141017346
   61      C       3.6580439260     3.6592492064     3.0070009737
   62      C       2.8901173913     0.0386024983    -2.6821729780
   63      C       6.2725163759     2.2124699531    -2.5494085325
   64      C       0.5014984072     2.5511053867     0.0133165109
   65      C       0.5303998634     1.2135201868     0.3480799180
   66      C       5.1355485293     2.6568014002    -3.2663232282
   67      C       2.9261106242     0.1277018692     2.6771933828
   68      C       3.6205901392    -1.3768424369     0.4036185250
   69      C       1.5163424426     1.8646407974     2.5117157887
   70      C       6.4138941781     0.3780419650     1.9253524972
   71      C       5.8947673090     4.2902313213    -1.8540925327
   72      C       3.9304808569    -1.3535132206    -0.9755509681
   73      C       4.0898564830     1.7560242866    -3.6190323661
   74      C       3.7286163965     2.2756098827     3.4278082315
   75      C       3.6056924783     4.3987804673    -2.6709759406
   76      C       4.9205676770     4.0676038452     2.5542524043
   77      C       1.9949949669     4.6145638649    -1.0610861767
   78      C       6.7416975155     3.1747733033    -1.7223327679
   79      C       4.9530188575     3.9516714316    -2.8091574809
   80      C       7.0678724375     1.4673452884     1.3344906641
   81      C       5.3757690351     0.5980011175     2.8277732187
   82      C       0.8857825894     3.5842898481     0.8469018611
   83      C       5.5740352580     5.1190822594    -0.7775340932
   84      C       2.0488089855     1.1131052691    -2.8226541582
   85      C       1.1425050513     0.8851359651     1.5882674207
   86      C       0.7788066026     2.6081232612    -1.4096417199
   87      C       5.0403043822     1.8921852716     3.2480550789
   88      C       2.5194449830     4.1350281621     2.3513022377
   89      O      -1.3995056511    -6.9648658677     2.0707680064
   90      C      -1.5395269933    -8.1868558304     2.9262173355
   91      H      -1.2451617538    -9.0737236589     2.3519703846
   92      H      -2.5725692977    -8.3660588014     3.2471221381
   93      H      -0.7891004904    -8.1460666963     3.7257686536
   94      O       0.8677556968    -7.2350901162     1.7374725877
   95      C      -0.0989470671    -6.5943354754     1.6062008980
   96      C      -0.1657707484    -5.2793556569     0.7758319002
   97      H      -0.7004447050    -5.4214618976    -0.1719310325
   98      H       0.8566612022    -4.9913575378     0.5032699993
   99      C      -0.8058984188    -4.1210065939     1.4304111648
  100      H      -1.8579216696    -4.3575694653     1.6338444156
  101      H      -0.3188416602    -3.9943791253     2.4046884345
  102      C      -0.6915273106    -2.8046591682     0.6008023988
  103      H      -0.7195908526    -1.9481759120     1.2856395103
  104      H       0.2867823732    -2.7963172525     0.1061827723
  105      C      -1.8421667481    -2.6665279141    -0.4147283204
  106      C      -1.5544979325    -3.4000899077    -1.6799553569
  107      C      -0.3278109655    -3.1504656346    -2.3398521726
  108      H       0.3629444673    -2.3903272716    -1.9858230764
  109      C       0.0125433890    -3.7432886006    -3.5403894875
  110      H       0.8800685729    -3.4471797360    -4.1231112011
  111      C      -0.8500711545    -4.6425917521    -4.1505271695
  112      H      -0.5881554743    -5.1414315048    -5.0799011941
  113      C      -2.0768051291    -4.9123195074    -3.5353388295
  114      H      -2.6947282780    -5.6079996222    -4.0945473415
  115      C      -2.4120941699    -4.3751413022    -2.2673329798
  116      H      -3.3445213534    -4.7104800876    -1.8219966503
  117      C      -4.9020333999     0.9418324152    -3.2098307884
  118      C      -6.3322074430    -0.9631078907    -2.9397888706
  119      C      -9.2000634384     0.9573154605     0.0003385317
  120      C      -3.1037046535     2.4664061362     1.3811158121
  121      C      -7.6634896465    -0.5018520069     2.7184610977
  122      C      -5.0613269156    -0.4372928497    -3.0897929633
  123      C      -5.0516335165     1.9418209092     3.2726264476
  124      C      -8.1589482060     1.9766213465    -1.9604650239
  125      C      -5.5206658615    -2.9538159958     0.3702550115
  126      C      -2.9946187165     1.2990990700     2.1553718884
  127      C      -3.2260566825    -2.4740832782     0.0238964756
  128      C      -5.0800460697    -2.5796609990     1.6360433972
  129      C      -4.1469888349    -0.3842601156     3.0638249484
  130      C      -6.3675141804     1.4464470364     3.4241546778
  131      C      -4.9294013357    -2.3593876057    -1.8395916233
  132      C      -8.4003583339     1.7137966487     2.0694876220
  133      C      -2.4340349516    -1.3091090280    -0.5791272174
  134      C      -2.2087559619    -0.0384293857     0.2243518572
  135      C      -8.6027203597     0.2930439256     2.0970794728
  136      C      -5.8026286168     3.9388628251    -0.1654955609
  137      C      -7.9339452460     3.1171040096     0.1440296810
  138      C      -7.6843238398     3.0557566287    -1.2492282464
  139      C      -7.2572589798     1.3453644663    -2.9155395187
  140      C      -2.4410436382     1.1088831984    -0.5921836715
  141      C      -4.5108667213    -2.8839237092    -0.6227680319
  142      C      -7.4653793350    -0.0812017862    -2.8375289757
  143      C      -4.0178202237     1.0319614026     3.1170798183
  144      C      -6.2667815930    -2.0989690837    -2.1405737505
  145      C      -5.9267062131    -1.9652772468     2.5281012466
  146      C      -3.6310993705     3.1986170820    -0.7382406806
  147      C      -8.8868979147     0.9093281289    -1.3746805848
  148      C      -3.7016501515    -2.1996385119     1.4823013997
  149      C      -5.5475294469     2.8921455548    -2.3216041781
  150      C      -5.4854328056    -0.8065822641     3.2080495659
  151      C      -6.9213607994    -2.8249488192     0.0708523700
  152      C      -6.5128374100     3.2729421357     2.0691525334
  153      C      -5.1636458963     3.1391541085     2.4696847084
  154      C      -7.7604969234    -2.2331846914     0.9374201875
  155      C      -2.8136310491     2.3147811247    -0.0019652267
  156      C      -2.6251262737     0.0610426160     1.5990540374
  157      C      -4.4519951493     3.7693259953     0.2055927033
  158      C      -3.0554343089    -0.6996477596    -1.7803107176
  159      C      -8.3327892191    -1.4452203734    -1.0491365728
  160      C      -3.3324310786    -1.0234088385     2.1594734838
  161      C      -7.2714580068    -1.7646967055     2.1672937359
  162      C      -4.1811907768     2.7039194812    -1.9664864738
  163      C      -9.1254360605    -0.1367393326     0.8871011064
  164      C      -5.9758191400     1.8387337500    -3.1483069713
  165      C      -8.7000823071     2.0671665410     0.7319364046
  166      C      -7.2757178920    -2.4110229465    -1.1938003186
  167      C      -8.6367373242    -1.3412091141     0.2946198066
  168      C      -4.1811917093    -1.2517950065    -2.3847374653
  169      C      -2.8895807062     0.7063439067    -1.8587773780
  170      C      -6.8337558280     3.6857342589     0.8000760850
  171      C      -8.4252996520    -0.3415133674    -1.8805003107
  172      C      -6.5487352007     0.0295123444     3.4098361419
  173      C      -4.1591223466     3.3186158128     1.4912119521
  174      C      -7.2689690569     2.2816895295     2.7067983624
  175      C      -3.8146276375     1.5134253249    -2.5573622040
  176      C      -6.3362835485     3.5018449019    -1.3991169569
 ----------------------------------------------------------------
 Molecular Point Group                 C1    NOp =  1
 Largest Abelian Subgroup              C1    NOp =  1
 Nuclear Repulsion Energy = 35202.6873661985 hartrees
 There are      462 alpha and      462 beta electrons
 Requested basis set is 6-31G(d,p)
 There are 676 shells and 2360 basis functions

 Total QAlloc Memory Limit  20000 MB
 Mega-Array Size      4888 MB
 MEM_STATIC part      5000 MB
 A cutoff of  1.0D-08 yielded  38539 shell pairs
 There are    537378 function pairs
 
 -------------------------------------------------------
 OpenMP Integral Computing Module                       
 Release: version 1.0, May 2013, Q-Chem Inc. Pittsburgh 
 -------------------------------------------------------
 Integral Job Info:
 Integral job number is                      11
 Integral operator is                         1
 short-range coefficients                     0
 long-range coefficients              100000000
 Omega coefficients                           0
 if combine SR and LR in K                    0
 Integral screening is                        0
 Integral computing path is                   2
 max size of driver memory is            800000
 size of driver memory is                593474
 size of scratch memory is              2260544
 max col of scratch BK array               1296
 max len of scratch array in speh3          155
 max len of scratch index in speh4           18
 max int batch size is                      520
 min int batch size is                       52
 fixed nKL is                                52
 max L of basis functions is                  2
 order of int derivative is                   0
 number of shells is                        676
 number of basis is                        2360
 number of cartesian basis is              2360
 number of contracted shell pairs         38539
 number of primitive shell pairs         115699
 maxK2 (contraction) of shell pair           36
 max number of K2 of shell pair               1
 max number of CS2 of shell pair           7296
 max number of PS2 of shell pair          34938
 mem total for path MDJ                 1523800
 -------------------------------------------------------
 Smallest overlap matrix eigenvalue = 2.49E-04

 Scale SEOQF with 1.000000e-02/1.000000e-02/1.000000e-01

 Standard Electronic Orientation quadrupole field applied
 Nucleus-field energy     =    -0.0000002268 hartrees
 Guess from superposition of atomic densities
 Warning:  Energy on first SCF cycle will be non-variational
 A restricted hybrid HF-DFT SCF calculation will be
 performed using Pulay DIIS extrapolation
 Exchange:     0.2000 Hartree-Fock + 0.0800 Slater + 0.7200 B88
 Correlation:  0.1900 VWN1RPA + 0.8100 LYP
 Using SG-1 standard quadrature grid
 SCF converges when DIIS error is below 1.0E-05
 using 16 threads for integral computing 
 -------------------------------------------------------
 OpenMP BLAS3 based DFT computing Module                
 Release: version 1.0, May 2013, Q-Chem Inc. Pittsburgh 
 -------------------------------------------------------
 ---------------------------------------
  Cycle       Energy         DIIS Error
 ---------------------------------------
    1   -5858.5287753576      1.83E-02
    2   -5803.1244230122      1.30E-03
    3   -5802.3180372416      1.80E-03
    4   -5803.9959446559      6.40E-04
    5   -5804.2229567909      2.89E-04
    6   -5804.2754553021      1.32E-04
    7   -5804.2869640315      4.93E-05
    8   -5804.2881221935      3.02E-05
    9   -5804.2887690046      9.31E-06 Convergence criterion met
 ---------------------------------------
 SCF time:  CPU 8409.83 s  wall 864.40 s
 SCF   energy in the final basis set = -5804.2887690046
 Total energy in the final basis set = -5804.2887690046
 
 --------------------------------------------------------------
 
                    Orbital Energies (a.u.)
 --------------------------------------------------------------
 
 Alpha MOs
 -- Occupied --
-19.193 -19.181 -19.150 -19.127 -10.319 -10.315 -10.246 -10.244
-10.243 -10.242 -10.242 -10.236 -10.236 -10.236 -10.230 -10.228
-10.226 -10.226 -10.226 -10.225 -10.224 -10.223 -10.222 -10.222
-10.221 -10.221 -10.220 -10.220 -10.219 -10.219 -10.218 -10.218
-10.217 -10.217 -10.217 -10.217 -10.217 -10.216 -10.216 -10.216
-10.216 -10.216 -10.215 -10.215 -10.215 -10.215 -10.215 -10.215
-10.215 -10.215 -10.215 -10.214 -10.214 -10.214 -10.214 -10.214
-10.214 -10.214 -10.214 -10.214 -10.214 -10.213 -10.213 -10.213
-10.213 -10.213 -10.213 -10.213 -10.212 -10.212 -10.212 -10.212
-10.212 -10.212 -10.212 -10.212 -10.212 -10.212 -10.212 -10.212
-10.212 -10.211 -10.211 -10.211 -10.211 -10.211 -10.211 -10.211
-10.211 -10.211 -10.211 -10.211 -10.211 -10.210 -10.210 -10.210
-10.210 -10.210 -10.210 -10.210 -10.210 -10.210 -10.209 -10.209
-10.209 -10.209 -10.209 -10.208 -10.208 -10.208 -10.208 -10.208
-10.208 -10.207 -10.207 -10.207 -10.207 -10.207 -10.207 -10.206
-10.206 -10.206 -10.206 -10.206 -10.205 -10.205 -10.205 -10.205
-10.205 -10.204 -10.204 -10.204 -10.203 -10.203 -10.201 -10.200
-10.200 -10.197 -10.197 -10.195 -10.195 -10.192 -10.191 -10.191
-10.190 -10.190 -10.190 -10.185  -1.093  -1.089  -1.008  -0.991
 -0.983  -0.978  -0.965  -0.963  -0.961  -0.961  -0.959  -0.957
 -0.933  -0.932  -0.927  -0.926  -0.925  -0.924  -0.920  -0.919
 -0.917  -0.915  -0.896  -0.892  -0.892  -0.888  -0.884  -0.878
 -0.873  -0.871  -0.858  -0.850  -0.842  -0.840  -0.839  -0.838
 -0.837  -0.832  -0.819  -0.818  -0.804  -0.802  -0.800  -0.796
 -0.795  -0.793  -0.791  -0.790  -0.788  -0.787  -0.784  -0.782
 -0.771  -0.768  -0.768  -0.767  -0.766  -0.765  -0.762  -0.760
 -0.759  -0.746  -0.741  -0.733  -0.732  -0.724  -0.716  -0.715
 -0.714  -0.711  -0.710  -0.710  -0.709  -0.708  -0.708  -0.707
 -0.707  -0.705  -0.704  -0.701  -0.700  -0.697  -0.672  -0.670
 -0.660  -0.657  -0.656  -0.654  -0.647  -0.642  -0.630  -0.628
 -0.626  -0.625  -0.624  -0.622  -0.621  -0.617  -0.616  -0.615
 -0.615  -0.614  -0.612  -0.612  -0.611  -0.610  -0.609  -0.606
 -0.605  -0.604  -0.601  -0.598  -0.566  -0.562  -0.561  -0.560
 -0.558  -0.557  -0.556  -0.555  -0.553  -0.552  -0.551  -0.550
 -0.536  -0.532  -0.530  -0.530  -0.529  -0.525  -0.524  -0.523
 -0.522  -0.521  -0.518  -0.518  -0.517  -0.516  -0.511  -0.509
 -0.505  -0.503  -0.499  -0.496  -0.489  -0.486  -0.486  -0.484
 -0.483  -0.481  -0.481  -0.478  -0.477  -0.476  -0.474  -0.472
 -0.471  -0.471  -0.468  -0.467  -0.466  -0.465  -0.464  -0.464
 -0.463  -0.463  -0.461  -0.460  -0.459  -0.459  -0.457  -0.455
 -0.454  -0.454  -0.450  -0.449  -0.447  -0.444  -0.444  -0.442
 -0.440  -0.440  -0.438  -0.437  -0.435  -0.434  -0.434  -0.432
 -0.431  -0.429  -0.429  -0.426  -0.425  -0.424  -0.423  -0.422
 -0.421  -0.421  -0.420  -0.420  -0.419  -0.417  -0.416  -0.416
 -0.415  -0.414  -0.414  -0.413  -0.412  -0.411  -0.411  -0.411
 -0.409  -0.407  -0.407  -0.404  -0.399  -0.397  -0.396  -0.395
 -0.392  -0.392  -0.390  -0.390  -0.388  -0.387  -0.387  -0.385
 -0.380  -0.379  -0.375  -0.372  -0.371  -0.367  -0.366  -0.364
 -0.363  -0.362  -0.361  -0.360  -0.359  -0.359  -0.358  -0.356
 -0.355  -0.355  -0.352  -0.352  -0.351  -0.350  -0.349  -0.349
 -0.348  -0.347  -0.347  -0.344  -0.344  -0.343  -0.342  -0.341
 -0.340  -0.338  -0.337  -0.337  -0.336  -0.335  -0.331  -0.331
 -0.330  -0.329  -0.329  -0.328  -0.326  -0.324  -0.324  -0.320
 -0.318  -0.307  -0.296  -0.293  -0.284  -0.280  -0.275  -0.272
 -0.269  -0.268  -0.267  -0.266  -0.265  -0.264  -0.263  -0.261
 -0.261  -0.259  -0.258  -0.257  -0.257  -0.254  -0.252  -0.251
 -0.250  -0.249  -0.242  -0.239  -0.219  -0.216  -0.211  -0.210
 -0.208  -0.207  -0.206  -0.202  -0.200  -0.197
 -- Virtual --
 -0.121  -0.120  -0.116  -0.115  -0.107  -0.103  -0.077  -0.074
 -0.073  -0.067  -0.057  -0.056  -0.048  -0.048  -0.022  -0.021
 -0.018  -0.017  -0.015  -0.014  -0.014  -0.013  -0.013  -0.012
 -0.011  -0.008  -0.007  -0.006  -0.006  -0.005   0.007   0.010
  0.011   0.012   0.036   0.039   0.044   0.045   0.047   0.047
  0.051   0.052   0.059   0.061   0.062   0.065   0.068   0.068
  0.071   0.072   0.076   0.081   0.085   0.088   0.091   0.094
  0.097   0.098   0.099   0.101   0.102   0.103   0.104   0.107
  0.111   0.113   0.115   0.117   0.118   0.119   0.120   0.124
  0.125   0.126   0.128   0.128   0.130   0.134   0.135   0.139
  0.139   0.147   0.147   0.150   0.153   0.154   0.155   0.157
  0.159   0.162   0.163   0.164   0.165   0.167   0.170   0.172
  0.173   0.175   0.177   0.178   0.179   0.182   0.183   0.185
  0.185   0.187   0.189   0.191   0.192   0.192   0.194   0.194
  0.196   0.199   0.200   0.204   0.204   0.205   0.209   0.210
  0.211   0.213   0.215   0.217   0.218   0.219   0.222   0.222
  0.222   0.224   0.225   0.227   0.228   0.229   0.230   0.232
  0.233   0.235   0.237   0.238   0.239   0.241   0.241   0.242
  0.244   0.244   0.246   0.248   0.255   0.257   0.258   0.261
  0.263   0.266   0.271   0.273   0.275   0.277   0.282   0.283
  0.286   0.289   0.290   0.292   0.299   0.302   0.302   0.307
  0.309   0.310   0.313   0.314   0.315   0.317   0.320   0.323
  0.324   0.324   0.325   0.328   0.329   0.331   0.332   0.335
  0.335   0.336   0.344   0.344   0.347   0.348   0.352   0.352
  0.353   0.357   0.363   0.366   0.376   0.382   0.385   0.388
  0.389   0.400   0.403   0.406   0.406   0.407   0.409   0.410
  0.413   0.413   0.416   0.417   0.419   0.421   0.422   0.427
  0.431   0.432   0.435   0.440   0.441   0.445   0.448   0.449
  0.453   0.454   0.455   0.456   0.462   0.464   0.466   0.466
  0.468   0.471   0.472   0.475   0.475   0.478   0.479   0.480
  0.482   0.483   0.483   0.484   0.485   0.486   0.487   0.488
  0.490   0.492   0.492   0.494   0.495   0.496   0.497   0.498
  0.500   0.501   0.502   0.503   0.504   0.505   0.506   0.507
  0.508   0.509   0.510   0.510   0.511   0.513   0.514   0.514
  0.514   0.515   0.516   0.517   0.517   0.519   0.519   0.520
  0.520   0.521   0.523   0.525   0.526   0.526   0.527   0.528
  0.529   0.530   0.531   0.531   0.532   0.533   0.533   0.534
  0.535   0.536   0.537   0.539   0.539   0.540   0.541   0.542
  0.542   0.543   0.544   0.545   0.546   0.546   0.546   0.547
  0.549   0.549   0.550   0.550   0.551   0.552   0.553   0.554
  0.554   0.555   0.556   0.556   0.557   0.557   0.558   0.559
  0.560   0.560   0.561   0.562   0.563   0.564   0.566   0.566
  0.567   0.568   0.569   0.570   0.571   0.572   0.573   0.574
  0.574   0.575   0.575   0.576   0.576   0.578   0.579   0.579
  0.580   0.582   0.582   0.583   0.585   0.586   0.587   0.588
  0.588   0.588   0.590   0.590   0.591   0.592   0.594   0.594
  0.595   0.595   0.597   0.598   0.599   0.600   0.600   0.601
  0.602   0.604   0.605   0.605   0.607   0.608   0.609   0.610
  0.611   0.612   0.614   0.616   0.617   0.618   0.619   0.619
  0.620   0.621   0.622   0.624   0.624   0.625   0.626   0.628
  0.629   0.630   0.633   0.633   0.635   0.635   0.637   0.637
  0.638   0.638   0.638   0.640   0.642   0.642   0.642   0.643
  0.644   0.647   0.649   0.650   0.651   0.652   0.652   0.654
  0.655   0.655   0.656   0.657   0.658   0.658   0.660   0.662
  0.662   0.663   0.663   0.665   0.665   0.666   0.667   0.667
  0.668   0.669   0.670   0.670   0.671   0.672   0.672   0.673
  0.674   0.676   0.676   0.678   0.678   0.680   0.682   0.683
  0.684   0.685   0.686   0.688   0.689   0.691   0.692   0.692
  0.694   0.696   0.697   0.698   0.698   0.700   0.701   0.701
  0.703   0.704   0.705   0.707   0.708   0.709   0.710   0.711
  0.712   0.713   0.715   0.716   0.716   0.719   0.719   0.720
  0.721   0.722   0.723   0.724   0.726   0.727   0.728   0.729
  0.730   0.731   0.732   0.734   0.735   0.736   0.737   0.738
  0.739   0.741   0.741   0.743   0.744   0.744   0.746   0.748
  0.750   0.752   0.753   0.753   0.754   0.756   0.756   0.759
  0.762   0.763   0.764   0.765   0.768   0.768   0.769   0.770
  0.771   0.772   0.773   0.775   0.776   0.778   0.779   0.780
  0.781   0.782   0.784   0.784   0.785   0.786   0.789   0.789
  0.790   0.792   0.792   0.795   0.795   0.796   0.798   0.801
  0.801   0.802   0.803   0.804   0.805   0.806   0.807   0.807
  0.809   0.810   0.811   0.812   0.813   0.813   0.814   0.814
  0.814   0.815   0.817   0.817   0.818   0.819   0.819   0.820
  0.822   0.822   0.824   0.825   0.825   0.826   0.827   0.828
  0.830   0.831   0.831   0.833   0.833   0.834   0.836   0.837
  0.839   0.840   0.843   0.844   0.846   0.847   0.851   0.852
  0.854   0.856   0.858   0.861   0.862   0.864   0.868   0.870
  0.872   0.875   0.880   0.884   0.892   0.894   0.896   0.900
  0.902   0.904   0.906   0.909   0.911   0.912   0.916   0.919
  0.920   0.924   0.924   0.925   0.928   0.931   0.932   0.934
  0.935   0.935   0.937   0.939   0.940   0.942   0.944   0.945
  0.947   0.948   0.950   0.951   0.952   0.955   0.956   0.961
  0.963   0.967   0.969   0.971   0.973   0.975   0.979   0.980
  0.982   0.984   0.990   0.992   0.995   0.997   1.000   1.000
  1.002   1.005   1.007   1.008   1.010   1.011   1.014   1.015
  1.017   1.018   1.020   1.022   1.022   1.024   1.025   1.026
  1.028   1.031   1.033   1.034   1.035   1.037   1.038   1.040
  1.042   1.043   1.045   1.046   1.048   1.050   1.051   1.051
  1.053   1.055   1.056   1.058   1.061   1.062   1.064   1.065
  1.067   1.070   1.070   1.072   1.074   1.074   1.076   1.078
  1.079   1.079   1.081   1.083   1.085   1.089   1.090   1.090
  1.091   1.095   1.096   1.098   1.100   1.102   1.102   1.104
  1.107   1.109   1.110   1.114   1.115   1.118   1.121   1.123
  1.125   1.126   1.129   1.130   1.134   1.136   1.137   1.140
  1.141   1.143   1.144   1.146   1.150   1.152   1.153   1.154
  1.155   1.157   1.159   1.160   1.162   1.164   1.165   1.166
  1.168   1.170   1.171   1.173   1.175   1.176   1.178   1.181
  1.183   1.185   1.187   1.189   1.190   1.192   1.196   1.198
  1.198   1.200   1.201   1.202   1.204   1.207   1.208   1.210
  1.211   1.214   1.217   1.217   1.221   1.222   1.228   1.232
  1.235   1.236   1.238   1.240   1.243   1.245   1.247   1.249
  1.251   1.253   1.256   1.258   1.259   1.262   1.262   1.264
  1.265   1.266   1.269   1.271   1.272   1.273   1.274   1.277
  1.279   1.280   1.283   1.285   1.286   1.290   1.290   1.294
  1.296   1.298   1.299   1.302   1.304   1.307   1.311   1.312
  1.317   1.319   1.323   1.325   1.328   1.330   1.333   1.335
  1.337   1.341   1.342   1.342   1.348   1.349   1.350   1.352
  1.353   1.358   1.360   1.362   1.366   1.368   1.371   1.374
  1.375   1.379   1.381   1.382   1.384   1.386   1.389   1.391
  1.393   1.395   1.397   1.398   1.400   1.402   1.406   1.409
  1.411   1.413   1.416   1.420   1.421   1.425   1.427   1.427
  1.430   1.434   1.438   1.440   1.444   1.445   1.449   1.451
  1.452   1.457   1.458   1.462   1.463   1.464   1.467   1.468
  1.470   1.472   1.475   1.477   1.479   1.480   1.482   1.483
  1.486   1.487   1.488   1.492   1.493   1.496   1.499   1.500
  1.501   1.502   1.504   1.508   1.510   1.514   1.516   1.518
  1.522   1.525   1.526   1.527   1.536   1.538   1.541   1.542
  1.543   1.545   1.547   1.549   1.551   1.553   1.556   1.556
  1.560   1.561   1.567   1.568   1.571   1.573   1.576   1.578
  1.579   1.580   1.582   1.585   1.586   1.589   1.591   1.593
  1.595   1.598   1.603   1.607   1.610   1.615   1.617   1.621
  1.626   1.627   1.629   1.631   1.633   1.639   1.644   1.645
  1.649   1.653   1.657   1.658   1.664   1.665   1.671   1.676
  1.677   1.681   1.684   1.691   1.692   1.694   1.696   1.703
  1.705   1.707   1.710   1.711   1.713   1.714   1.715   1.718
  1.718   1.724   1.725   1.726   1.728   1.731   1.732   1.733
  1.734   1.738   1.740   1.741   1.742   1.743   1.746   1.747
  1.748   1.750   1.752   1.753   1.754   1.755   1.756   1.759
  1.761   1.762   1.765   1.767   1.767   1.770   1.771   1.772
  1.773   1.774   1.775   1.776   1.778   1.779   1.780   1.781
  1.783   1.784   1.784   1.784   1.786   1.787   1.788   1.790
  1.791   1.794   1.794   1.795   1.796   1.799   1.800   1.801
  1.801   1.803   1.804   1.804   1.806   1.807   1.810   1.812
  1.814   1.815   1.816   1.818   1.822   1.824   1.825   1.827
  1.830   1.831   1.833   1.836   1.839   1.840   1.843   1.845
  1.847   1.848   1.850   1.852   1.853   1.855   1.856   1.857
  1.860   1.863   1.863   1.863   1.865   1.866   1.869   1.870
  1.872   1.874   1.875   1.876   1.877   1.879   1.882   1.884
  1.886   1.888   1.891   1.893   1.895   1.896   1.900   1.904
  1.906   1.909   1.910   1.914   1.918   1.918   1.922   1.925
  1.926   1.928   1.928   1.929   1.931   1.933   1.934   1.936
  1.937   1.938   1.942   1.944   1.945   1.947   1.949   1.950
  1.955   1.957   1.962   1.962   1.963   1.966   1.966   1.968
  1.969   1.973   1.974   1.979   1.980   1.982   1.983   1.984
  1.986   1.989   1.989   1.990   1.991   1.993   1.994   1.996
  1.997   1.998   2.001   2.002   2.004   2.005   2.006   2.007
  2.008   2.010   2.011   2.012   2.014   2.015   2.018   2.019
  2.022   2.023   2.024   2.025   2.026   2.028   2.028   2.029
  2.030   2.033   2.034   2.036   2.037   2.037   2.038   2.039
  2.041   2.043   2.045   2.046   2.047   2.048   2.048   2.049
  2.051   2.051   2.053   2.054   2.054   2.055   2.056   2.058
  2.060   2.062   2.062   2.065   2.066   2.066   2.068   2.070
  2.071   2.072   2.074   2.074   2.076   2.077   2.078   2.080
  2.082   2.083   2.084   2.086   2.088   2.088   2.089   2.091
  2.095   2.095   2.096   2.098   2.100   2.101   2.104   2.109
  2.112   2.113   2.115   2.117   2.122   2.123   2.125   2.127
  2.130   2.133   2.136   2.139   2.140   2.145   2.148   2.149
  2.151   2.153   2.161   2.161   2.167   2.170   2.174   2.175
  2.177   2.181   2.187   2.191   2.191   2.198   2.201   2.208
  2.210   2.215   2.217   2.219   2.222   2.224   2.225   2.232
  2.234   2.234   2.235   2.238   2.242   2.246   2.248   2.251
  2.256   2.258   2.260   2.262   2.264   2.264   2.267   2.269
  2.271   2.273   2.274   2.274   2.278   2.279   2.283   2.285
  2.287   2.290   2.292   2.294   2.295   2.297   2.298   2.299
  2.302   2.303   2.305   2.308   2.312   2.312   2.315   2.317
  2.319   2.321   2.324   2.329   2.330   2.331   2.335   2.336
  2.343   2.346   2.348   2.350   2.354   2.356   2.357   2.359
  2.360   2.361   2.363   2.366   2.367   2.368   2.371   2.372
  2.374   2.376   2.377   2.380   2.382   2.385   2.385   2.387
  2.388   2.389   2.390   2.393   2.393   2.395   2.398   2.400
  2.401   2.403   2.403   2.406   2.406   2.409   2.411   2.412
  2.414   2.415   2.417   2.419   2.420   2.421   2.425   2.426
  2.429   2.430   2.433   2.435   2.439   2.445   2.447   2.450
  2.452   2.455   2.456   2.459   2.462   2.462   2.464   2.466
  2.468   2.470   2.473   2.473   2.475   2.478   2.479   2.481
  2.483   2.486   2.487   2.487   2.492   2.492   2.494   2.496
  2.499   2.501   2.503   2.504   2.506   2.506   2.509   2.512
  2.512   2.515   2.516   2.518   2.520   2.522   2.525   2.526
  2.528   2.529   2.532   2.535   2.535   2.538   2.539   2.542
  2.545   2.549   2.550   2.556   2.557   2.559   2.564   2.566
  2.570   2.572   2.573   2.577   2.583   2.585   2.586   2.586
  2.591   2.595   2.595   2.602   2.604   2.605   2.608   2.608
  2.611   2.613   2.614   2.616   2.617   2.617   2.620   2.622
  2.625   2.625   2.627   2.627   2.630   2.632   2.632   2.634
  2.635   2.637   2.637   2.641   2.642   2.647   2.648   2.650
  2.652   2.652   2.654   2.656   2.656   2.659   2.660   2.662
  2.664   2.666   2.667   2.669   2.671   2.672   2.676   2.676
  2.679   2.680   2.681   2.683   2.685   2.687   2.690   2.694
  2.695   2.696   2.698   2.700   2.704   2.706   2.708   2.710
  2.711   2.715   2.717   2.719   2.721   2.722   2.725   2.729
  2.732   2.734   2.735   2.737   2.740   2.741   2.745   2.747
  2.747   2.751   2.753   2.758   2.759   2.762   2.762   2.765
  2.767   2.768   2.771   2.773   2.774   2.775   2.778   2.779
  2.780   2.783   2.786   2.787   2.789   2.790   2.792   2.797
  2.799   2.802   2.804   2.810   2.811   2.813   2.818   2.821
  2.825   2.827   2.833   2.837   2.840   2.843   2.843   2.846
  2.847   2.853   2.855   2.855   2.860   2.862   2.863   2.868
  2.868   2.870   2.872   2.873   2.874   2.876   2.880   2.881
  2.883   2.884   2.886   2.889   2.890   2.893   2.893   2.895
  2.897   2.898   2.900   2.903   2.904   2.908   2.908   2.910
  2.911   2.912   2.914   2.915   2.917   2.921   2.922   2.926
  2.927   2.929   2.930   2.931   2.932   2.936   2.938   2.939
  2.940   2.944   2.945   2.948   2.949   2.956   2.959   2.960
  2.964   2.965   2.968   2.970   2.975   2.983   2.984   2.985
  2.989   2.996   2.996   3.000   3.002   3.004   3.008   3.012
  3.013   3.014   3.017   3.020   3.022   3.025   3.028   3.031
  3.033   3.036   3.039   3.041   3.042   3.047   3.048   3.051
  3.054   3.055   3.057   3.060   3.062   3.064   3.067   3.069
  3.077   3.083   3.086   3.088   3.093   3.096   3.098   3.114
  3.118   3.126   3.127   3.130   3.139   3.150   3.155   3.156
  3.160   3.167   3.171   3.178   3.186   3.187   3.188   3.193
  3.197   3.199   3.202   3.207   3.231   3.238   3.244   3.247
  3.249   3.256   3.263   3.269   3.271   3.278   3.283   3.289
  3.290   3.302   3.313   3.322   3.325   3.330   3.334   3.340
  3.343   3.347   3.352   3.353   3.356   3.372   3.384   3.388
  3.393   3.394   3.420   3.422   3.431   3.440   3.441   3.452
  3.453   3.458   3.463   3.474   3.477   3.483   3.492   3.504
  3.510   3.515   3.518   3.525   3.539   3.542   3.544   3.552
  3.555   3.562   3.568   3.573   3.583   3.586   3.599   3.605
  3.622   3.639   3.685   3.699   3.865   3.894   3.979   3.982
  4.074   4.079   4.082   4.085   4.087   4.094   4.095   4.099
  4.101   4.107   4.109   4.111   4.116   4.120   4.121   4.122
  4.126   4.131   4.138   4.144   4.145   4.150   4.150   4.153
  4.159   4.161   4.165   4.171   4.172   4.178   4.180   4.180
  4.188   4.190   4.200   4.201   4.212   4.225   4.227   4.240
  4.242   4.248   4.249   4.255   4.255   4.260   4.264   4.270
  4.273   4.277   4.281   4.285   4.292   4.293   4.294   4.299
  4.311   4.319   4.328   4.355   4.386   4.388   4.391   4.394
  4.398   4.403   4.410   4.413   4.415   4.418   4.419   4.423
  4.427   4.430   4.433   4.434   4.441   4.454   4.462   4.465
  4.471   4.490   4.494   4.524   4.532   4.538   4.550   4.553
  4.561   4.566   4.620   4.626   4.633   4.635   4.638   4.639
  4.641   4.652   4.668   4.691   4.696   4.700   4.701   4.704
  4.706   4.710   4.712   4.728   4.736   4.776   4.784   4.799
  4.847   4.853   4.871   4.871   4.875   4.885   4.888   4.897
  4.899   4.915   4.957   4.973   4.974   4.976   4.985   4.987
  4.992   4.993   4.998   5.003   5.171   5.175   5.182   5.196
  5.200   5.208   5.212   5.218   5.321   5.331   5.339   5.356
  5.361   5.375
 --------------------------------------------------------------
 
          Ground-State Mulliken Net Atomic Charges

     Atom                 Charge (a.u.)
  ----------------------------------------
      1 O                    -0.466740
      2 C                    -0.089142
      3 H                     0.122606
      4 H                     0.157807
      5 H                     0.136032
      6 O                    -0.504340
      7 C                     0.597484
      8 C                    -0.276933
      9 H                     0.134442
     10 H                     0.122284
     11 C                    -0.164055
     12 H                     0.100086
     13 H                     0.127264
     14 C                    -0.194040
     15 H                     0.141107
     16 H                     0.112664
     17 C                    -0.000554
     18 C                     0.076698
     19 C                    -0.103654
     20 H                     0.098675
     21 C                    -0.094100
     22 H                     0.092497
     23 C                    -0.082199
     24 H                     0.082765
     25 C                    -0.076648
     26 H                     0.092078
     27 C                    -0.098574
     28 H                     0.086767
     29 C                     0.001010
     30 C                     0.006338
     31 C                    -0.016353
     32 C                    -0.001630
     33 C                    -0.013617
     34 C                    -0.008538
     35 C                    -0.005551
     36 C                    -0.007486
     37 C                    -0.016627
     38 C                    -0.002545
     39 C                    -0.065651
     40 C                     0.000289
     41 C                    -0.020600
     42 C                     0.000665
     43 C                     0.039288
     44 C                     0.026148
     45 C                    -0.110593
     46 C                     0.054292
     47 C                     0.009581
     48 C                    -0.008334
     49 C                    -0.012649
     50 C                     0.023165
     51 C                     0.016504
     52 C                    -0.005129
     53 C                     0.023991
     54 C                    -0.013591
     55 C                    -0.024792
     56 C                    -0.006219
     57 C                    -0.001026
     58 C                    -0.007485
     59 C                     0.006132
     60 C                     0.029750
     61 C                    -0.032208
     62 C                     0.023313
     63 C                    -0.005611
     64 C                     0.036149
     65 C                    -0.000429
     66 C                     0.017516
     67 C                    -0.022444
     68 C                     0.022966
     69 C                    -0.009780
     70 C                     0.029119
     71 C                     0.023591
     72 C                    -0.007476
     73 C                    -0.025994
     74 C                     0.029136
     75 C                    -0.038464
     76 C                     0.003054
     77 C                     0.023135
     78 C                    -0.010217
     79 C                     0.001253
     80 C                    -0.015885
     81 C                    -0.013181
     82 C                    -0.041079
     83 C                    -0.014852
     84 C                     0.017118
     85 C                     0.015803
     86 C                    -0.006890
     87 C                    -0.007082
     88 C                     0.007529
     89 O                    -0.505378
     90 C                    -0.088168
     91 H                     0.123392
     92 H                     0.131278
     93 H                     0.129103
     94 O                    -0.429311
     95 C                     0.592003
     96 C                    -0.262560
     97 H                     0.139414
     98 H                     0.145760
     99 C                    -0.187258
    100 H                     0.119714
    101 H                     0.098687
    102 C                    -0.205014
    103 H                     0.107338
    104 H                     0.121226
    105 C                     0.038021
    106 C                     0.078412
    107 C                    -0.100215
    108 H                     0.092961
    109 C                    -0.089067
    110 H                     0.091433
    111 C                    -0.078829
    112 H                     0.087975
    113 C                    -0.091208
    114 H                     0.087174
    115 C                    -0.125872
    116 H                     0.101370
    117 C                     0.003709
    118 C                    -0.004567
    119 C                     0.002389
    120 C                     0.002119
    121 C                     0.014141
    122 C                     0.011843
    123 C                     0.008420
    124 C                     0.019914
    125 C                     0.008166
    126 C                    -0.023660
    127 C                    -0.081028
    128 C                     0.007899
    129 C                    -0.017071
    130 C                    -0.025905
    131 C                    -0.002948
    132 C                    -0.025952
    133 C                    -0.074685
    134 C                     0.002989
    135 C                    -0.005592
    136 C                     0.000233
    137 C                    -0.008120
    138 C                    -0.016118
    139 C                    -0.017838
    140 C                     0.022038
    141 C                     0.012563
    142 C                    -0.010465
    143 C                     0.004840
    144 C                     0.011400
    145 C                    -0.017467
    146 C                    -0.026593
    147 C                    -0.015170
    148 C                     0.011520
    149 C                    -0.003538
    150 C                     0.001991
    151 C                     0.019055
    152 C                     0.013531
    153 C                    -0.034684
    154 C                    -0.011398
    155 C                    -0.004104
    156 C                    -0.011898
    157 C                    -0.004653
    158 C                     0.041491
    159 C                     0.009251
    160 C                     0.041209
    161 C                    -0.012886
    162 C                     0.021531
    163 C                    -0.005226
    164 C                    -0.013086
    165 C                     0.009769
    166 C                    -0.038112
    167 C                     0.011026
    168 C                     0.002877
    169 C                    -0.003099
    170 C                     0.003770
    171 C                     0.009452
    172 C                     0.004865
    173 C                     0.038502
    174 C                     0.013488
    175 C                    -0.013744
    176 C                     0.004137
  ----------------------------------------
  Sum of atomic charges =     0.000000

 -----------------------------------------------------------------
                    Cartesian Multipole Moments
 -----------------------------------------------------------------
    Charge (ESU x 10^10)
                 0.0000
    Dipole Moment (Debye)
         X       4.5684      Y      -5.1389      Z       0.1592
       Tot       6.8778
    Quadrupole Moments (Debye-Ang)
        XX    -788.8536     XY      -8.7207     YY    -780.3574
        XZ       0.4259     YZ      -2.2636     ZZ    -799.3566
    Octopole Moments (Debye-Ang^2)
       XXX     714.3572    XXY    -298.7283    XYY      31.1040
       YYY    -598.9566    XXZ      16.7590    XYZ      26.6811
       YYZ      52.8792    XZZ      99.3453    YZZ    -185.0021
       ZZZ       5.0019
    Hexadecapole Moments (Debye-Ang^3)
      XXXX -135764.4034   XXXY   -2144.8713   XXYY  -30706.6628
      XYYY    -235.8875   YYYY  -44620.8200   XXXZ     276.1038
      XXYZ      61.7691   XYYZ    -179.9573   YYYZ    -816.7382
      XXZZ  -26253.4839   XYZZ    -187.5063   YYZZ  -10682.1951
      XZZZ      85.2336   YZZZ     -61.4525   ZZZZ  -19650.9419
 -----------------------------------------------------------------
Archival summary:
1\1\mn251\SP\ProcedureUnspecified\6-31G**\428\afmv_a\FriOct1208:31:012018FriOct1208:31:012018\0\\#,ProcedureUnspecified,6-31G**,\\0,1\C\C,1,1.37914\C,2,1.38203,1,124.947\C,1,1.40652,2,108.156,3,145.787,0\C,4,1.39672,1,109.617,2,1.24415,0\C,5,1.36506,4,106.534,1,-0.226603,0\C,6,1.40421,5,117.589,4,-142.74,0\C,7,1.36697,6,117.725,5,140.778,0\C,8,1.36461,7,123.477,6,-0.573806,0\C,7,1.3671,6,125.843,5,0.23647,0\C,10,1.39471,7,112.564,6,145.32,0\C,8,1.40134,7,109.905,6,-147.698,0\C,12,1.40517,8,123.333,7,144.587,0\C,13,1.38709,12,120.705,8,-136.832,0\C,13,1.38733,12,116.273,8,2.21529,0\C,15,1.37762,13,121.5,12,-1.92185,0\C,15,1.39118,13,107.838,12,-140.05,0\C,14,1.39601,13,119.572,12,3.81295,0\C,18,1.38335,14,121.421,13,-7.80915,0\C,19,1.38528,18,111.525,14,144.773,0\C,17,1.39786,15,121.671,13,143.388,0\C,17,1.40051,15,107.174,13,-1.88175,0\C,22,1.38551,17,119.146,15,142.286,0\C,23,1.37902,22,118.884,17,3.18566,0\C,24,1.37293,23,123.472,22,-2.87521,0\C,21,1.40203,17,120.817,15,0.137456,0\C,26,1.3974,21,118.884,17,0.303615,0\C,27,1.39682,26,117.814,21,-138.689,0\C,18,1.40673,14,122.472,13,133.298,0\C,29,1.35285,18,107.336,14,-144.316,0\C,29,1.40313,18,120.501,14,-5.24154,0\C,31,1.34839,29,124.487,18,-138.916,0\C,32,1.39679,31,108.804,29,146.683,0\C,33,1.40121,32,121.27,31,-145.668,0\C,34,1.393,33,119.884,32,132.849,0\C,35,1.40146,34,121.23,33,5.44429,0\C,36,1.37835,35,121.586,34,-140.995,0\C,37,1.39325,36,121.024,35,1.45952,0\C,38,1.38068,37,120.862,36,2.33418,0\C,39,1.41376,38,109.427,37,140.111,0\C,40,1.35628,39,106.708,38,-1.51985,0\C,40,1.39689,39,120.187,38,-143.99,0\C,42,1.37436,40,120.027,39,139.944,0\C,42,1.39695,40,120.333,39,1.01286,0\C,41,1.39712,40,110.028,39,3.61663,0\C,44,1.41074,42,119.913,40,-0.266038,0\C,46,1.39671,44,120.901,42,2.50358,0\C,44,1.41375,42,109.183,40,144.412,0\C,43,1.41699,42,109.795,40,-143.803,0\C,49,1.37589,43,119.624,42,139.016,0\C,50,1.37189,49,121.995,43,4.36852,0\C,50,1.39502,49,120.844,43,-137.436,0\C,51,1.40564,50,107.485,49,-146.256,0\C,53,1.37814,51,110.208,50,-2.95192,0\C,52,1.41681,50,118.873,49,3.63797,0\C,55,1.39443,52,123.264,50,-4.89443,0\C,32,1.41959,31,118.876,29,-1.76275,0\C,55,1.41994,52,119.385,50,138.367,0\C,56,1.46121,55,111.468,52,147.75,0\C,46,1.49968,44,125.634,42,149.824,0\C,60,1.51672,46,125.147,44,58.2487,0\C,61,1.53796,60,120.226,46,157.404,0\C,62,1.40137,61,122.435,60,139.029,0\H,63,1.08617,62,120.229,61,4.24912,0\C,63,1.34836,62,120.692,61,174.109,0\H,65,1.08544,63,118.982,62,-169.285,0\C,65,1.36774,63,118.751,62,4.85804,0\H,67,1.08596,65,115.429,63,-174.509,0\C,67,1.376,65,123.187,63,-6.51526,0\H,69,1.08595,67,122.761,65,175.259,0\C,69,1.40506,67,119.444,65,3.55626,0\H,71,1.08612,69,118.717,67,-175.051,0\C,61,1.6184,60,117.75,46,14.4023,0\H,73,1.09716,61,112.015,60,111.044,0\H,73,1.0975,61,108.2,60,-7.04831,0\C,73,1.55121,61,110.601,60,-122.488,0\H,76,1.09637,73,115.532,61,64.6443,0\H,76,1.09695,73,109.566,61,-58.2106,0\C,76,1.53711,73,113.06,61,-171.663,0\H,79,1.09669,76,115.498,73,63.5981,0\H,79,1.09732,76,115.83,73,-179.316,0\C,79,1.55168,76,118.532,73,-61.6371,0\O,82,1.24707,79,122.237,76,-15.6078,0\O,82,1.33251,79,114.147,76,169.288,0\C,84,1.48355,82,119.268,79,-167.27,0\H,85,1.09664,84,108.389,82,175.655,0\H,85,1.09683,84,111,82,-52.518,0\H,85,1.09747,84,109.086,82,67.803,0\H,43,2.62158,42,120.628,40,120.755,0\C,89,1.08641,43,167.948,42,-45.624,0\C,90,1.38151,89,115.263,43,162.212,0\H,91,1.08621,90,123.092,89,2.83114,0\C,91,1.38749,90,120.471,89,174.353,0\H,93,1.08682,91,121.581,90,178.183,0\C,93,1.3986,91,118.482,90,-1.19882,0\H,95,1.08559,93,113.345,91,-178.635,0\C,90,1.41511,89,121.508,43,-24.2377,0\C,95,1.41733,93,121.865,91,4.91859,0\H,98,1.08637,95,116.923,93,174.399,0\C,97,1.49053,90,118.445,89,4.6389,0\C,100,1.46444,97,120.086,90,-156.344,0\C,100,1.48994,97,115.555,90,-84.6988,0\C,102,1.48338,100,129.055,97,-15.1838,0\C,103,1.39195,102,121.833,100,-60.5341,0\C,104,1.3911,103,119.968,102,-152.45,0\C,105,1.38352,104,107.68,103,147.341,0\C,106,1.3904,105,109.243,104,-0.31329,0\C,105,1.39347,104,123.423,103,1.53157,0\C,108,1.391,105,117.107,104,1.43543,0\C,109,1.37869,108,110.366,105,138.886,0\C,107,1.39535,106,108.757,105,3.73662,0\C,111,1.38959,107,123.231,106,-145.109,0\C,108,1.40044,105,122.848,104,140.246,0\C,113,1.39272,108,119.075,105,-2.08226,0\C,113,1.4059,108,105.791,105,-135.655,0\C,115,1.35825,113,123.973,108,139.912,0\C,109,1.41248,108,120.608,105,-2.76137,0\C,117,1.40267,109,119.475,108,136.216,0\C,118,1.39333,117,123.05,109,3.2999,0\C,119,1.41121,118,118.42,117,2.97109,0\C,120,1.37492,119,104.339,118,-144.284,0\C,121,1.39346,120,111.937,119,-1.89136,0\C,122,1.36099,121,106.911,120,-1.63569,0\C,123,1.40498,122,122.403,121,142.122,0\C,124,1.4067,123,122.255,122,-134.539,0\C,125,1.41081,124,112.814,123,141.693,0\C,126,1.37472,125,101.595,124,-0.498633,0\C,126,1.40656,125,125.673,124,-147.471,0\C,127,1.41088,126,119.352,125,-139.347,0\C,129,1.36762,127,124.726,126,141.771,0\C,121,1.41091,120,116.16,119,139.152,0\C,122,1.41375,121,122.024,120,145.554,0\C,132,1.41373,122,118.034,121,-7.58184,0\C,133,1.37257,132,120.901,122,5.91882,0\C,133,1.40032,132,108.622,122,-139.771,0\C,134,1.40148,133,119.626,132,-142.222,0\C,129,1.41408,127,119.482,126,-6.66682,0\C,137,1.3748,129,119.078,127,6.44836,0\C,138,1.39153,137,121.023,129,132.506,0\C,137,1.40669,129,107.747,127,146.078,0\C,140,1.404,137,120.669,129,-142.262,0\C,141,1.3436,140,119.63,137,3.04822,0\C,142,1.37704,141,107.41,140,141.144,0\C,141,1.40592,140,113.947,137,139.361,0\C,144,1.38162,141,105.059,140,-141.953,0\C,145,1.38488,144,120.608,141,146.053,0\C,146,1.38026,145,121.338,144,-138.241,0\C,130,1.41528,129,108.106,127,-144.079,0\C,148,1.37845,130,122.71,129,144.101,0\C,149,1.38636,148,118.136,130,-142.026,0\C,150,1.41027,149,109.162,148,137.291,0\C,151,1.41105,150,125.072,149,-139.601,0\C,136,1.41677,134,109.852,133,147.188,0\C,153,1.37683,136,118.764,134,-143.997,0\C,135,1.41729,133,120.659,132,147.626,0\C,155,1.41554,135,119.597,133,-5.533,0\C,135,1.42297,133,107.637,132,4.97373,0\C,157,1.41418,135,109.259,133,-1.97724,0\C,158,1.38593,157,118.434,135,140.903,0\C,118,1.42724,117,109.752,109,-146.415,0\C,100,1.54089,97,111.79,90,52.1499,0\H,161,1.09627,100,111.614,97,-37.1356,0\H,161,1.09697,100,108.805,97,-155.441,0\C,161,1.56016,100,111.798,97,84.1709,0\H,164,1.09657,161,110.026,100,153.354,0\H,164,1.09731,161,110.534,100,35.8641,0\C,164,1.47649,161,113.229,100,-87.0059,0\H,167,1.09663,164,107.961,161,-51.5387,0\H,167,1.09742,164,105.857,161,61.4827,0\C,167,1.55665,164,116.414,161,-173.548,0\O,170,1.16718,167,124.007,164,131.413,0\O,170,1.42988,167,110.681,164,-54.0264,0\C,172,1.49822,170,118.808,167,178.237,0\H,173,1.09648,172,112.859,170,-178.591,0\H,173,1.09679,172,109.602,170,63.6526,0\H,173,1.09731,172,108.772,170,-48.4757,0\\\@

 Total job time:  879.91s(wall), 8436.51s(cpu) 
 Fri Oct 12 08:31:01 2018

        *************************************************************
        *                                                           *
        *  Thank you very much for using Q-Chem.  Have a nice day.  *
        *                                                           *
        *************************************************************


