
Running Job 1 of 1 ./7/21.qcin
qchem ./7/21.qcin_27921.0 /tmpu/cab_g/afmv_a/scratch_qchem/qchem27921/ 1
/tmpu/appuserlic/qchem4.4/serial-multicore/exe/qcprog.exe_s ./7/21.qcin_27921.0 /tmpu/cab_g/afmv_a/scratch_qchem/qchem27921/
Check license passed

                  Welcome to Q-Chem
     A Quantum Leap Into The Future Of Chemistry


 Q-Chem 4.4, Q-Chem, Inc., Pleasanton, CA (2016)

 Y. Shao,  Z. Gan,  E. Epifanovsky,  A. T. B. Gilbert,  M. Wormit,  
 J. Kussmann,  A. W. Lange,  A. Behn,  J. Deng,  X. Feng,  D. Ghosh,  
 M. Goldey,  P. R. Horn,  L. D. Jacobson,  I. Kaliman,  F. Rob,  
 R. Z. Khaliullin,  T. Kus,  A. Landau,  J. Liu,  E. I. Proynov,  Y. M. Rhee,  
 R. M. Richard,  M. A. Rohrdanz,  R. P. Steele,  E. J. Sundstrom,  
 H. L. Woodcock III,  P. M. Zimmerman,  D. Zuev,  B. Albrecht,  E. Alguire,  
 B. Austin,  S. A. Baeppler,  G. J. O. Beran,  Y. A. Bernard,  E. Berquist,  
 K. Brandhorst,  K. B. Bravaya,  S. T. Brown,  D. Casanova,  C.-M. Chang,  
 Y. Chen,  S. H. Chien,  K. D. Closser,  M. P. Coons,  D. L. Crittenden,  
 S. Dasgupta,  M. Diedenhofen,  R. A. DiStasio Jr.,  H. Do,  A. D. Dutoi,  
 R. G. Edgar,  P.-T. Fang,  S. Fatehi,  Q. Feng,  L. Fusti-Molnar,  
 A. Ghysels,  A. Golubeva-Zadorozhnaya,  J. Gomes,  A. Gunina,  
 M. W. D. Hanson-Heine,  P. H. P. Harbach,  A. W. Hauser,  J. E. Herr,  
 E. G. Hohenstein,  Z. C. Holden,  K. Hui,  T.-C. Jagau,  H. Ji,  B. Kaduk,  
 K. Khistyaev,  Jaehoon Kim,  Jihan Kim,  R. A. King,  P. Klunzinger,  
 K. Koh,  D. Kosenkov,  T. Kowalczyk,  C. M. Krauter,  A. Kunitsa,  
 K. U. Lao,  A. Laurent,  K. V. Lawler,  J. Lee,  D. Lefrancois,  S. Lehtola,  
 S. V. Levchenko,  C. Y. Lin,  Y.-S. Lin,  F. Liu,  E. Livshits,  
 R. C. Lochan,  A. Luenser,  P. Manohar,  S. F. Manzer,  S.-P. Mao,  Y. Mao,  
 N. Mardirossian,  A. V. Marenich,  L. A. Martinez-Martinez,  S. A. Maurer,  
 N. J. Mayhall,  J.-M. Mewes,  A. F. Morrison,  K. Nanda,  T. S. Nguyen-Beck,  
 C. M. Oana,  R. Olivares-Amaya,  D. P. O'Neill,  J. A. Parkhill,  
 T. M. Perrine,  R. Peverati,  P. A. Pieniazek,  F. Plasser,  A. Prociuk,  
 D. R. Rehn,  E. Rosta,  N. J. Russ,  N. Sergueev,  S. M. Sharada,  
 S. Sharma,  D. W. Small,  A. Sodt,  T. Stauch,  T. Stein,  D. Stuck,  
 Y.-C. Su,  A. J. W. Thom,  T. Tsuchimochi,  L. Vogt,  O. Vydrov,  T. Wang,  
 M. A. Watson,  J. Wenzel,  A. White,  C. F. Williams,  V. Vanovschi,  
 K. Yao,  S. Yeganeh,  S. R. Yost,  Z.-Q. You,  I. Y. Zhang,  X. Zhang,  
 Y. Zhao,  B. R. Brooks,  G. K. L. Chan,  D. M. Chipman,  C. J. Cramer,  
 W. A. Goddard III,  M. S. Gordon,  W. J. Hehre,  A. Klamt,  
 H. F. Schaefer III,  M. W. Schmidt,  C. D. Sherrill,  D. G. Truhlar,  
 A. Warshel,  X. Xu,  A. Aspuru-Guzik,  R. Baer,  A. T. Bell,  N. A. Besley,  
 J.-D. Chai,  A. Dreuw,  B. D. Dunietz,  T. R. Furlani,  S. R. Gwaltney,  
 C.-P. Hsu,  Y. Jung,  J. Kong,  D. S. Lambrecht,  W. Liang,  C. Ochsenfeld,  
 V. A. Rassolov,  L. V. Slipchenko,  J. E. Subotnik,  T. Van Voorhis,  
 J. M. Herbert,  A. I. Krylov,  P. M. W. Gill,  M. Head-Gordon

 Contributors to earlier versions of Q-Chem not listed above: 
 R. D. Adamson,  J. Baker,  E. F. C. Byrd,  A. K. Chakraborty,  C.-L. Cheng,  
 H. Dachsel,  R. J. Doerksen,  G. Hawkins,  A. Heyden,  S. Hirata,  
 G. Kedziora,  F. J. Keil,  C. Kelley,  P. P. Korambath,  W. Kurlancheek,  
 A. M. Lee,  M. S. Lee,  D. Liotard,  I. Lotan,  P. E. Maslen,  N. Nair,  
 D. Neuhauser,  R. Olson,  B. Peters,  J. Ritchie,  N. E. Schultz,  
 N. Shenvi,  A. C. Simmonett,  K. S. Thanthiriwatte,  Q. Wu,  W. Zhang

 Please cite Q-Chem as follows:
 Y. Shao et al., Mol. Phys. 113, 184-215 (2015)
 DOI: 10.1080/00268976.2014.952696

 Q-Chem 4.4.2 for Intel X86 Linux

 Parts of Q-Chem use Armadillo 5.200.1 (Boston Tea Smuggler).
 http://arma.sourceforge.net/

 Q-Chem begins on Fri Oct 12 06:07:07 2018  

Host: 
0

     Scratch files written to /tmpu/cab_g/afmv_a/scratch_qchem/qchem27921//
 Dec716 11556_ 22328  22283 4050   
Processing $rem in /tmpu/appuserlic/qchem4.4/serial-multicore/config/preferences.
 MEM_TOTAL  2000 
FILE_GEOM_ORG=        593

Checking the input file for inconsistencies... 	...done.

--------------------------------------------------------------
User input:
--------------------------------------------------------------
$comment
SP
$end

$rem
MEM_STATIC 5000
MEM_TOTAL 20000
JOBTYPE SP
EXCHANGE B3LYP
BASIS 6-31g(d,p)
$end

$molecule
0 1
O         -10.519000      6.900000     -1.511000
C         -11.064000      7.939000     -2.343000
H         -10.225000      8.344000     -2.923000
H         -11.681000      8.676000     -1.813000
H         -11.662000      7.468000     -3.133000
O         -12.318000      6.782000     -0.120000
C         -11.196000      6.473000     -0.390000
C         -10.469000      5.413000      0.366000
H          -9.973000      5.929000      1.198000
H          -9.841000      5.018000     -0.442000
C         -11.287000      4.332000      1.050000
H         -11.628000      4.739000      2.010000
H         -12.146000      4.064000      0.422000
C         -10.410000      3.225000      1.498000
H          -9.844000      2.748000      0.689000
H          -9.538000      3.573000      2.065000
C         -11.129000      2.184000      2.334000
C         -12.272000      1.517000      1.526000
C         -11.981000      0.551000      0.616000
H         -10.932000      0.325000      0.451000
C         -12.975000     -0.199000      0.052000
H         -12.616000     -0.996000     -0.593000
C         -14.322000     -0.021000      0.470000
H         -15.146000     -0.703000      0.282000
C         -14.684000      1.089000      1.247000
H         -15.728000      1.296000      1.464000
C         -13.587000      1.768000      1.823000
H         -13.938000      2.614000      2.406000
C         -13.650000      1.365000      7.180000
C         -12.772000     -0.801000      6.488000
C          -9.391000     -1.091000      9.544000
C          -9.762000      4.663000      6.964000
C          -6.895000     -0.177000      7.244000
C         -13.287000      0.443000      6.173000
C          -7.388000      3.340000      7.622000
C         -11.657000     -0.220000      9.776000
C          -9.467000     -0.596000      4.251000
C          -8.900000      4.186000      5.961000
C         -10.390000      1.410000      3.385000
C          -8.418000      0.297000      4.147000
C          -7.465000      2.586000      5.357000
C          -6.789000      2.116000      8.014000
C         -11.842000     -0.224000      4.520000
C          -7.677000      0.409000      9.436000
C         -11.361000      2.466000      3.799000
C         -10.834000      3.632000      4.492000
C          -7.418000     -0.565000      8.461000
C         -10.623000      3.210000      9.935000
C          -9.757000      1.123000     10.419000
C         -11.182000      0.941000     10.298000
C         -12.723000     -0.136000      8.849000
C         -11.656000      3.965000      5.614000
C         -10.673000      0.016000      3.804000
C         -12.435000     -1.098000      7.837000
C          -7.706000      3.566000      6.315000
C         -11.845000     -1.163000      5.451000
C          -7.366000      0.249000      5.079000
C         -11.738000      4.271000      8.017000
C         -10.804000     -1.205000      9.365000
C          -8.891000      1.515000      3.682000
C         -12.820000      2.285000      9.071000
C          -6.869000      1.424000      5.723000
C          -9.487000     -1.644000      5.196000
C          -8.288000      2.752000      9.542000
C          -8.206000      3.790000      8.672000
C          -8.435000     -1.690000      6.126000
C         -11.138000      4.545000      6.771000
C          -9.426000      3.610000      4.785000
C         -10.688000      4.223000      8.981000
C         -12.551000      2.138000      4.642000
C         -10.360000     -2.147000      7.181000
C          -8.520000      2.662000      4.388000
C          -7.415000     -0.737000      6.094000
C         -12.798000      3.334000      8.043000
C          -8.469000     -1.488000      8.532000
C         -13.283000      1.118000      8.494000
C          -8.881000      0.054000     10.085000
C         -10.715000     -1.932000      5.823000
C          -8.994000     -2.036000      7.365000
C         -12.708000      0.818000      4.983000
C         -12.698000      3.035000      5.703000
C          -9.496000      2.511000     10.217000
C         -11.230000     -1.720000      8.114000
C          -6.561000      1.144000      7.051000
C          -9.451000      4.415000      8.323000
C          -7.366000      1.755000      9.223000
C         -13.332000      2.719000      6.884000
C         -11.698000      2.251000      9.983000
O           1.430000     -6.390000      1.539000
C           2.445000     -5.906000      0.618000
H           3.228000     -6.664000      0.504000
H           2.795000     -4.948000      1.022000
H           2.019000     -5.791000     -0.386000
O           1.077000     -8.383000      0.446000
C           1.005000     -7.704000      1.406000
C           0.247000     -8.083000      2.734000
H          -0.351000     -8.998000      2.634000
H          -0.442000     -7.279000      3.020000
C           1.212000     -8.527000      3.933000
H           1.777000     -9.425000      3.655000
H           2.037000     -7.807000      4.005000
C           0.471000     -8.872000      5.342000
H          -0.240000     -9.671000      5.096000
H           1.233000     -9.252000      6.034000
C          -0.099000     -7.634000      6.082000
C           0.887000     -6.503000      6.343000
C           1.830000     -6.549000      7.456000
H           1.797000     -7.353000      8.185000
C           2.757000     -5.510000      7.644000
H           3.381000     -5.540000      8.532000
C           2.834000     -4.475000      6.715000
H           3.522000     -3.643000      6.839000
C           1.964000     -4.387000      5.635000
H           2.109000     -3.573000      4.931000
C           0.941000     -5.386000      5.481000
H           0.282000     -5.223000      4.634000
C          -3.052000     -6.138000     10.542000
C          -3.589000     -4.462000      8.845000
C          -7.853000     -5.996000      8.111000
C          -3.795000    -10.771000      8.549000
C          -7.063000     -7.678000      5.164000
C          -2.671000     -5.275000      9.456000
C          -5.965000    -10.597000      6.800000
C          -6.639000     -5.758000     10.173000
C          -3.338000     -5.958000      5.119000
C          -3.579000    -10.729000      7.177000
C          -1.540000     -7.329000      5.844000
C          -3.565000     -7.237000      4.566000
C          -4.261000     -9.880000      5.267000
C          -6.934000     -9.830000      6.230000
C          -2.254000     -5.184000      7.171000
C          -8.282000     -8.053000      7.220000
C          -1.150000     -7.934000      7.145000
C          -1.767000     -9.192000      7.537000
C          -7.902000     -7.144000      6.178000
C          -6.208000     -9.234000     10.560000
C          -7.750000     -7.818000      9.634000
C          -7.010000     -7.089000     10.572000
C          -5.291000     -5.336000     10.349000
C          -2.029000     -9.243000      8.924000
C          -2.198000     -5.920000      5.928000
C          -4.933000     -4.489000      9.311000
C          -4.642000    -10.693000      6.314000
C          -3.364000     -4.393000      7.468000
C          -4.884000     -7.662000      4.364000
C          -3.817000     -9.646000     10.575000
C          -7.064000     -5.154000      8.942000
C          -2.576000     -8.062000      5.013000
C          -4.698000     -7.477000     11.377000
C          -5.199000     -9.001000      4.718000
C          -4.425000     -5.102000      5.367000
C          -7.314000     -9.928000      8.475000
C          -6.185000    -10.685000      8.191000
C          -5.747000     -5.544000      5.108000
C          -3.051000    -10.007000      9.457000
C          -2.542000     -9.997000      6.632000
C          -5.125000    -10.068000     10.306000
C          -1.430000     -7.115000      8.397000
C          -5.754000     -4.388000      7.033000
C          -2.966000     -9.369000      5.438000
C          -6.005000     -6.876000      4.660000
C          -3.573000     -8.297000     11.103000
C          -7.607000     -5.875000      6.699000
C          -4.364000     -6.137000     11.032000
C          -8.170000     -7.268000      8.397000
C          -4.464000     -4.394000      6.556000
C          -6.572000     -5.056000      6.141000
C          -1.808000     -5.765000      8.404000
C          -1.862000     -7.958000      9.463000
C          -7.317000     -9.131000      9.675000
C          -6.008000     -4.352000      8.443000
C          -6.546000     -8.989000      5.175000
C          -5.067000    -10.780000      9.085000
C          -7.779000     -9.396000      7.229000
C          -2.591000     -7.452000     10.537000
C          -5.990000     -7.939000     11.122000
$end

--------------------------------------------------------------
 ----------------------------------------------------------------
             Standard Nuclear Orientation (Angstroms)
    I     Atom           X                Y                Z
 ----------------------------------------------------------------
    1      O      10.9325954856    -6.9605100966    -0.1858604062
    2      C      12.2035367456    -7.6232426975    -0.3052916138
    3      H      12.0887902792    -8.6030575518     0.1754807854
    4      H      13.0653292652    -7.0267693949     0.0207317784
    5      H      12.3415133870    -7.9148065553    -1.3538610981
    6      O      11.7305844941    -4.8878066068    -0.6881748356
    7      C      10.8418493963    -5.5918501781    -0.3116943241
    8      C       9.4543477252    -5.0767909443    -0.1294359948
    9      H       9.4072986053    -4.7097927555     0.9038087534
   10      H       8.8935429972    -5.9860612744    -0.3784310224
   11      C       9.0202718697    -3.8794818454    -0.9562189610
   12      H       9.3875897889    -2.9802627238    -0.4463047352
   13      H       9.4494584673    -3.9495030461    -1.9636835489
   14      C       7.5539051769    -3.6895062086    -0.8615617917
   15      H       6.9687620110    -4.5531266543    -1.1993978487
   16      H       7.1880042999    -3.6942041951     0.1723973357
   17      C       7.0643823739    -2.4180225803    -1.5273206131
   18      C       7.3927240407    -2.4238953048    -3.0426949104
   19      C       6.6192024034    -3.1417573678    -3.8984257881
   20      H       5.8223145933    -3.7382614716    -3.4650037394
   21      C       6.7516985443    -2.9935954733    -5.2508772016
   22      H       6.0225423757    -3.5524563288    -5.8306364844
   23      C       7.6552512664    -2.0286321038    -5.7736153519
   24      H       7.6732663395    -1.6547903254    -6.7931062944
   25      C       8.6049909506    -1.4198927521    -4.9403663291
   26      H       9.3757205516    -0.7774884128    -5.3564991770
   27      C       8.3521901313    -1.5925301474    -3.5610498043
   28      H       9.1241011664    -1.1004861204    -2.9772244627
   29      C       7.2088050132     3.0936877222    -1.1954928827
   30      C       5.1148061221     2.5273249002    -2.3071159294
   31      C       2.2981101523     3.5777210442     1.1305124325
   32      C       7.3650060061     0.3716055823     3.1179598032
   33      C       1.8271349779     0.2320311455     2.1000244164
   34      C       6.4402289175     2.2495260108    -2.0277090746
   35      C       4.7705728545     0.0687632169     4.1161442169
   36      C       4.3336053194     4.6814613498     0.3651773671
   37      C       3.5878489680    -1.0062206981    -1.2339540804
   38      C       6.6279799125    -0.7992951888     2.8682281039
   39      C       5.8408746903    -1.7155660524    -1.0180252426
   40      C       3.6398892067    -1.7803381813    -0.0908443150
   41      C       4.6087550611    -1.6732796477     2.4901763022
   42      C       3.3958756318     0.3679920608     3.9391960751
   43      C       5.3018878058     0.2836988138    -2.3517861408
   44      C       2.4044345548     2.3573377417     3.0537440140
   45      C       7.1858761915    -1.1141851900    -0.7757753303
   46      C       7.6411611518    -1.0141105658     0.6027146676
   47      C       1.6552049632     1.6009409482     2.1411099636
   48      C       6.2993121016     3.6182956851     3.1696403489
   49      C       4.0817140967     4.0454277109     2.6801525337
   50      C       4.8451604474     4.6614633734     1.6237247170
   51      C       5.2100249357     4.3829930216    -0.7051246058
   52      C       8.2234691990     0.2687969130     0.8487283642
   53      C       4.8780840540    -0.9362841969    -1.8332797920
   54      C       4.4580580055     3.5786668140    -1.6107388104
   55      C       5.3542017080    -0.9412420217     3.4092384387
   56      C       4.4312918286     1.2726848143    -2.4634120123
   57      C       2.7989650424    -1.4782906457     0.9950865466
   58      C       8.1175101769     2.2967046801     2.1720317209
   59      C       3.1157627962     4.1245404049     0.0941540289
   60      C       4.9437667602    -2.2009577005     0.1247027695
   61      C       7.0921752230     4.1219967329     0.8145218115
   62      C       3.2877424370    -1.4075379689     2.3361535536
   63      C       2.6418489781     0.0252268952    -1.4154172486
   64      C       4.5642734792     2.2593115165     4.1490488482
   65      C       5.4519377067     1.2642731259     4.4000843442
   66      C       1.8027858568     0.3251564756    -0.3292610327
   67      C       8.1589325247     0.8895865255     2.0952548479
   68      C       6.7036430173    -1.4332977789     1.6097592683
   69      C       7.2726102872     2.6270282257     3.2725454790
   70      C       7.5344562903     0.2423328860    -1.2979665063
   71      C       2.4734573633     2.2408975324    -1.2819597961
   72      C       5.4790605405    -2.0112262414     1.4010838028
   73      C       1.9071212958    -0.3859305793     0.8678614825
   74      C       8.0512308464     3.0185284503     0.9567858630
   75      C       1.5867571883     2.3540009362     0.9622178750
   76      C       6.5775399251     4.0905290538    -0.4674092691
   77      C       2.7725900364     3.5604775371     2.4105036438
   78      C       3.0798935382     1.2073182526    -2.0437754157
   79      C       1.6818244083     1.7214558120    -0.2741748173
   80      C       6.5630636259     0.8795344103    -2.0285145943
   81      C       8.1411354391     1.0343533750    -0.3199159168
   82      C       5.0181698949     3.4631621515     3.5854073908
   83      C       3.1884754375     3.3661301429    -1.1021856997
   84      C       2.6654434273    -0.3637346986     3.0144357039
   85      C       6.7603556345     1.4338698122     3.8328714299
   86      C       3.2794497473     1.7503733771     3.9591437451
   87      C       8.0991488706     2.4108729213    -0.3219324879
   88      C       6.2218604134     4.3705956688     1.9425886097
   89      O      -7.1727165448    -7.3472868102     0.6820572468
   90      C      -7.2803586485    -8.7186641254     1.1515883288
   91      H      -8.3289824876    -9.0351262035     1.1217756254
   92      H      -6.8278876953    -8.7379093012     2.1507778302
   93      H      -6.7643576956    -9.3955230704     0.4599800689
   94      O      -8.3054265894    -7.7023670675    -1.2882708898
   95      C      -7.8961036218    -6.9877177687    -0.4459193670
   96      C      -7.9335313263    -5.4134266829    -0.4905931171
   97      H      -8.2488012200    -5.0247908312    -1.4675250845
   98      H      -6.9359092814    -5.0045544741    -0.2893301739
   99      C      -9.0679817222    -4.7605166299     0.4328205291
  100      H     -10.0621831553    -5.0839203793     0.1013291640
  101      H      -9.0385438755    -5.2416678324     1.4186379227
  102      C      -9.1030542823    -3.1321895357     0.4594248478
  103      H      -9.2354407106    -2.8379269204    -0.5895371853
  104      H      -9.9798997039    -2.8280975427     1.0447266216
  105      C      -7.9200919915    -2.4817666141     1.2227689652
  106      C      -7.7058129502    -2.9629806383     2.6517530643
  107      C      -8.5071292533    -2.4546561243     3.7606409625
  108      H      -9.2225864167    -1.6514735284     3.6124358174
  109      C      -8.3149886939    -2.9510707801     5.0609672658
  110      H      -8.8695910244    -2.4854489888     5.8699373533
  111      C      -7.4169110862    -3.9934696061     5.2778919030
  112      H      -7.2250528957    -4.3876516819     6.2722534700
  113      C      -6.6339926555    -4.5171789972     4.2562211123
  114      H      -5.9843682443    -5.3546723844     4.4925047358
  115      C      -6.7414591068    -3.9540048872     2.9373079675
  116      H      -6.0697593441    -4.3951741435     2.2076175426
  117      C      -5.6681008550     2.4319716439     2.5008680432
  118      C      -3.7722157153     0.8961948650     2.3454228045
  119      C      -2.1865509405     2.6251099689    -1.6004773190
  120      C      -8.4386341144     2.0370909437    -1.7602352988
  121      C      -3.4869713303     0.0763895067    -3.5881804696
  122      C      -5.0649120598     1.1453566026     2.7247229355
  123      C      -6.6747456316     1.5467487353    -3.8688933884
  124      C      -3.0925670313     3.7556189555     0.3187330067
  125      C      -4.4687591563    -2.0977930111    -0.2497567332
  126      C      -8.3166857896     0.7538008484    -2.2789829613
  127      C      -6.7538680680    -2.0579215659     0.3942599820
  128      C      -5.2195760288    -2.1987270113    -1.4410859704
  129      C      -6.9309432483    -0.7246698869    -3.1321341169
  130      C      -5.3924213450     1.3664389985    -4.2875613031
  131      C      -4.8811549280    -1.0236269848     1.9091626900
  132      C      -3.3541911501     2.4919889267    -3.5570217547
  133      C      -7.6720500530    -1.0097015081     0.9128181299
  134      C      -8.3189951186    -0.1215399186    -0.0408841680
  135      C      -2.7222473203     1.2339737591    -3.2840934969
  136      C      -6.0907852947     4.5932343001    -1.3326887381
  137      C      -3.8970817348     4.2500128871    -1.8896086182
  138      C      -3.9491884731     4.5470100019    -0.5228743347
  139      C      -3.6330341399     3.1741249999     1.5002253190
  140      C      -8.4217787756     1.1984179584     0.4512141176
  141      C      -5.2781827357    -1.9605200453     0.8822832846
  142      C      -3.0356906525     1.9427797989     1.7238024960
  143      C      -7.4893988329     0.5183871286    -3.3449147939
  144      C      -3.6343085091    -0.4012131407     1.8461943304
  145      C      -4.6951521306    -1.6526926618    -2.6192269061
  146      C      -7.8917330569     3.5463228303    -0.0887379624
  147      C      -2.1648637850     2.7841144582    -0.1875749021
  148      C      -6.5387686042    -2.1210904220    -1.1060359609
  149      C      -5.8115003921     4.2074141467     1.0772450270
  150      C      -5.5852960929    -0.9248771417    -3.4531275566
  151      C      -3.1782952866    -1.5415606363    -0.2831864553
  152      C      -5.5979695225     3.4850033942    -3.4730284013
  153      C      -6.8326175131     2.8576158432    -3.3711696754
  154      C      -2.6557693387    -1.0392627649    -1.5017070674
  155      C      -8.4614673026     2.2993780908    -0.3845972294
  156      C      -8.3089016064    -0.3580141244    -1.4592117293
  157      C      -7.3609057306     4.0292781641    -1.2913540671
  158      C      -7.0739170379     0.0250401152     1.8552679531
  159      C      -2.0779120885     0.3702021273     0.1479897884
  160      C      -7.3694280367    -1.3033361085    -1.9320243326
  161      C      -3.4451610414    -1.0248418293    -2.6925659072
  162      C      -7.0936531241     3.6034096626     1.1433052651
  163      C      -2.0160461689     1.2770980777    -2.0723809786
  164      C      -4.9338346653     3.4779837614     1.9280183136
  165      C      -3.0129470915     3.2820774363    -2.4285667758
  166      C      -2.8044960848    -0.6531566207     0.7105531796
  167      C      -1.9381278241     0.1372840527    -1.2074516636
  168      C      -5.8045496346    -0.0651863103     2.4434843993
  169      C      -7.6268784097     1.3148832056     1.6019548592
  170      C      -5.1799705567     4.3473009113    -2.3974179437
  171      C      -2.1226285528     1.6881088532     0.7092689522
  172      C      -4.8155105000     0.1074548279    -4.0573815143
  173      C      -7.7443383399     3.1052833259    -2.2915350372
  174      C      -4.6982862508     2.5346153800    -4.0553493035
  175      C      -6.9616181240     2.4767938345     1.9871112467
  176      C      -5.3235753020     4.7028747332    -0.1327884079
 ----------------------------------------------------------------
 Molecular Point Group                 C1    NOp =  1
 Largest Abelian Subgroup              C1    NOp =  1
 Nuclear Repulsion Energy = 33368.6271990986 hartrees
 There are      462 alpha and      462 beta electrons
 Requested basis set is 6-31G(d,p)
 There are 676 shells and 2360 basis functions

 Total QAlloc Memory Limit  20000 MB
 Mega-Array Size      4888 MB
 MEM_STATIC part      5000 MB
 A cutoff of  1.0D-08 yielded  36416 shell pairs
 There are    514126 function pairs
 
 -------------------------------------------------------
 OpenMP Integral Computing Module                       
 Release: version 1.0, May 2013, Q-Chem Inc. Pittsburgh 
 -------------------------------------------------------
 Integral Job Info:
 Integral job number is                      11
 Integral operator is                         1
 short-range coefficients                     0
 long-range coefficients              100000000
 Omega coefficients                           0
 if combine SR and LR in K                    0
 Integral screening is                        0
 Integral computing path is                   2
 max size of driver memory is            800000
 size of driver memory is                593474
 size of scratch memory is              2260544
 max col of scratch BK array               1296
 max len of scratch array in speh3          155
 max len of scratch index in speh4           18
 max int batch size is                      520
 min int batch size is                       52
 fixed nKL is                                52
 max L of basis functions is                  2
 order of int derivative is                   0
 number of shells is                        676
 number of basis is                        2360
 number of cartesian basis is              2360
 number of contracted shell pairs         36416
 number of primitive shell pairs         111393
 maxK2 (contraction) of shell pair           36
 max number of K2 of shell pair               1
 max number of CS2 of shell pair           6981
 max number of PS2 of shell pair          33828
 mem total for path MDJ                 1458280
 -------------------------------------------------------
 Smallest overlap matrix eigenvalue = 2.45E-04

 Scale SEOQF with 1.000000e-02/1.000000e-02/1.000000e-02

 Standard Electronic Orientation quadrupole field applied
 Nucleus-field energy     =     0.0000001409 hartrees
 Guess from superposition of atomic densities
 Warning:  Energy on first SCF cycle will be non-variational
 A restricted hybrid HF-DFT SCF calculation will be
 performed using Pulay DIIS extrapolation
 Exchange:     0.2000 Hartree-Fock + 0.0800 Slater + 0.7200 B88
 Correlation:  0.1900 VWN1RPA + 0.8100 LYP
 Using SG-1 standard quadrature grid
 SCF converges when DIIS error is below 1.0E-05
 using 16 threads for integral computing 
 -------------------------------------------------------
 OpenMP BLAS3 based DFT computing Module                
 Release: version 1.0, May 2013, Q-Chem Inc. Pittsburgh 
 -------------------------------------------------------
 ---------------------------------------
  Cycle       Energy         DIIS Error
 ---------------------------------------
    1   -5858.6094902241      1.83E-02
    2   -5803.1097571882      1.29E-03
    3   -5802.4685191459      1.72E-03
    4   -5803.9940300687      6.05E-04
    5   -5804.1814242043      3.06E-04
    6   -5804.2441552277      1.24E-04
    7   -5804.2540427892      4.91E-05
    8   -5804.2551863132      3.17E-05
    9   -5804.2559683639      7.73E-06 Convergence criterion met
 ---------------------------------------
 SCF time:  CPU 7991.67 s  wall 822.96 s
 SCF   energy in the final basis set = -5804.2559683639
 Total energy in the final basis set = -5804.2559683639
 
 --------------------------------------------------------------
 
                    Orbital Energies (a.u.)
 --------------------------------------------------------------
 
 Alpha MOs
 -- Occupied --
-19.189 -19.189 -19.148 -19.132 -10.322 -10.311 -10.248 -10.246
-10.245 -10.242 -10.237 -10.234 -10.231 -10.231 -10.230 -10.228
-10.228 -10.226 -10.224 -10.224 -10.223 -10.223 -10.222 -10.222
-10.222 -10.221 -10.221 -10.221 -10.221 -10.221 -10.220 -10.220
-10.220 -10.220 -10.220 -10.219 -10.219 -10.219 -10.218 -10.218
-10.218 -10.218 -10.218 -10.218 -10.217 -10.217 -10.217 -10.217
-10.217 -10.217 -10.217 -10.217 -10.217 -10.217 -10.216 -10.216
-10.216 -10.216 -10.216 -10.216 -10.215 -10.215 -10.215 -10.215
-10.215 -10.215 -10.214 -10.214 -10.214 -10.214 -10.214 -10.214
-10.214 -10.214 -10.213 -10.213 -10.213 -10.213 -10.213 -10.213
-10.212 -10.212 -10.212 -10.212 -10.212 -10.212 -10.212 -10.212
-10.212 -10.212 -10.211 -10.211 -10.211 -10.211 -10.211 -10.211
-10.211 -10.211 -10.211 -10.211 -10.211 -10.211 -10.210 -10.209
-10.209 -10.209 -10.209 -10.209 -10.209 -10.209 -10.209 -10.209
-10.209 -10.209 -10.208 -10.208 -10.208 -10.208 -10.208 -10.208
-10.208 -10.208 -10.208 -10.207 -10.207 -10.207 -10.207 -10.206
-10.206 -10.206 -10.206 -10.206 -10.206 -10.205 -10.204 -10.203
-10.202 -10.202 -10.199 -10.199 -10.198 -10.198 -10.196 -10.196
-10.196 -10.191 -10.190 -10.189  -1.098  -1.093  -1.027  -1.016
 -0.985  -0.981  -0.969  -0.964  -0.963  -0.961  -0.960  -0.958
 -0.934  -0.933  -0.929  -0.927  -0.925  -0.925  -0.923  -0.921
 -0.919  -0.918  -0.898  -0.897  -0.890  -0.890  -0.883  -0.882
 -0.877  -0.874  -0.859  -0.851  -0.845  -0.840  -0.840  -0.837
 -0.836  -0.833  -0.824  -0.818  -0.810  -0.799  -0.798  -0.796
 -0.794  -0.792  -0.792  -0.792  -0.790  -0.790  -0.785  -0.779
 -0.771  -0.770  -0.770  -0.769  -0.767  -0.763  -0.763  -0.760
 -0.753  -0.749  -0.745  -0.739  -0.732  -0.730  -0.719  -0.715
 -0.714  -0.712  -0.712  -0.712  -0.711  -0.710  -0.709  -0.708
 -0.707  -0.705  -0.705  -0.704  -0.703  -0.700  -0.675  -0.670
 -0.660  -0.659  -0.656  -0.655  -0.645  -0.644  -0.631  -0.631
 -0.628  -0.626  -0.622  -0.622  -0.621  -0.621  -0.618  -0.616
 -0.616  -0.613  -0.613  -0.612  -0.611  -0.611  -0.608  -0.608
 -0.606  -0.605  -0.603  -0.601  -0.566  -0.565  -0.564  -0.562
 -0.561  -0.561  -0.558  -0.556  -0.555  -0.554  -0.552  -0.551
 -0.536  -0.535  -0.534  -0.531  -0.529  -0.527  -0.525  -0.524
 -0.523  -0.520  -0.520  -0.517  -0.515  -0.515  -0.512  -0.512
 -0.506  -0.504  -0.504  -0.500  -0.496  -0.489  -0.487  -0.484
 -0.484  -0.483  -0.481  -0.480  -0.479  -0.477  -0.474  -0.474
 -0.473  -0.470  -0.469  -0.468  -0.468  -0.468  -0.467  -0.466
 -0.465  -0.464  -0.463  -0.463  -0.462  -0.460  -0.460  -0.460
 -0.458  -0.456  -0.452  -0.451  -0.448  -0.446  -0.444  -0.443
 -0.441  -0.439  -0.439  -0.437  -0.437  -0.437  -0.435  -0.433
 -0.431  -0.430  -0.429  -0.427  -0.427  -0.426  -0.424  -0.423
 -0.423  -0.422  -0.421  -0.420  -0.420  -0.418  -0.418  -0.418
 -0.417  -0.416  -0.416  -0.415  -0.414  -0.413  -0.412  -0.412
 -0.411  -0.411  -0.410  -0.409  -0.404  -0.401  -0.399  -0.397
 -0.395  -0.394  -0.392  -0.390  -0.388  -0.387  -0.383  -0.383
 -0.380  -0.379  -0.374  -0.371  -0.371  -0.370  -0.367  -0.365
 -0.365  -0.364  -0.363  -0.361  -0.360  -0.359  -0.358  -0.357
 -0.357  -0.356  -0.356  -0.355  -0.353  -0.352  -0.350  -0.350
 -0.349  -0.348  -0.348  -0.346  -0.346  -0.344  -0.344  -0.342
 -0.341  -0.339  -0.339  -0.337  -0.337  -0.336  -0.334  -0.333
 -0.332  -0.331  -0.331  -0.329  -0.328  -0.327  -0.324  -0.318
 -0.314  -0.309  -0.302  -0.296  -0.285  -0.285  -0.275  -0.272
 -0.270  -0.269  -0.267  -0.265  -0.265  -0.264  -0.264  -0.261
 -0.261  -0.261  -0.260  -0.260  -0.258  -0.257  -0.255  -0.254
 -0.251  -0.249  -0.247  -0.243  -0.219  -0.219  -0.213  -0.212
 -0.209  -0.208  -0.208  -0.204  -0.200  -0.198
 -- Virtual --
 -0.122  -0.122  -0.120  -0.115  -0.108  -0.106  -0.081  -0.074
 -0.073  -0.072  -0.057  -0.056  -0.056  -0.049  -0.023  -0.021
 -0.020  -0.019  -0.018  -0.017  -0.016  -0.015  -0.014  -0.011
 -0.011  -0.009  -0.009  -0.006  -0.006  -0.004   0.002   0.006
  0.007   0.015   0.036   0.040   0.041   0.042   0.044   0.048
  0.049   0.054   0.055   0.057   0.057   0.065   0.066   0.068
  0.072   0.075   0.078   0.084   0.085   0.088   0.091   0.091
  0.093   0.096   0.096   0.101   0.103   0.105   0.107   0.108
  0.109   0.111   0.112   0.113   0.115   0.115   0.117   0.120
  0.121   0.123   0.124   0.129   0.130   0.133   0.135   0.137
  0.138   0.143   0.147   0.147   0.149   0.152   0.154   0.155
  0.157   0.159   0.160   0.162   0.162   0.164   0.165   0.166
  0.168   0.170   0.175   0.175   0.176   0.177   0.180   0.183
  0.184   0.185   0.186   0.187   0.190   0.190   0.192   0.193
  0.194   0.194   0.198   0.200   0.202   0.204   0.204   0.209
  0.209   0.210   0.211   0.212   0.216   0.216   0.217   0.220
  0.221   0.221   0.222   0.224   0.225   0.225   0.228   0.229
  0.230   0.231   0.232   0.234   0.235   0.237   0.238   0.241
  0.242   0.245   0.246   0.246   0.248   0.255   0.256   0.260
  0.262   0.266   0.270   0.274   0.277   0.278   0.280   0.282
  0.283   0.284   0.289   0.290   0.294   0.294   0.300   0.303
  0.304   0.308   0.309   0.313   0.315   0.316   0.319   0.319
  0.319   0.323   0.323   0.325   0.327   0.330   0.332   0.334
  0.336   0.337   0.342   0.345   0.346   0.347   0.348   0.350
  0.351   0.353   0.360   0.360   0.375   0.379   0.384   0.395
  0.395   0.400   0.402   0.402   0.403   0.405   0.406   0.407
  0.408   0.409   0.412   0.414   0.418   0.418   0.422   0.422
  0.425   0.430   0.432   0.438   0.440   0.442   0.443   0.449
  0.453   0.454   0.456   0.458   0.461   0.462   0.464   0.466
  0.470   0.472   0.473   0.474   0.476   0.477   0.477   0.477
  0.479   0.482   0.482   0.483   0.484   0.486   0.487   0.489
  0.489   0.490   0.491   0.492   0.492   0.493   0.495   0.496
  0.497   0.497   0.498   0.499   0.503   0.503   0.504   0.504
  0.505   0.507   0.507   0.509   0.510   0.511   0.511   0.513
  0.514   0.515   0.517   0.517   0.518   0.518   0.519   0.519
  0.520   0.521   0.522   0.524   0.525   0.525   0.526   0.527
  0.527   0.529   0.529   0.529   0.531   0.532   0.533   0.534
  0.534   0.535   0.536   0.537   0.537   0.538   0.539   0.540
  0.540   0.541   0.542   0.543   0.544   0.545   0.546   0.546
  0.547   0.547   0.548   0.549   0.549   0.550   0.551   0.552
  0.552   0.553   0.553   0.554   0.555   0.556   0.557   0.557
  0.557   0.558   0.558   0.560   0.561   0.562   0.562   0.563
  0.564   0.566   0.566   0.566   0.568   0.568   0.570   0.571
  0.572   0.572   0.573   0.573   0.574   0.576   0.577   0.578
  0.579   0.580   0.581   0.582   0.582   0.583   0.585   0.585
  0.586   0.587   0.587   0.588   0.589   0.590   0.591   0.593
  0.593   0.594   0.594   0.595   0.595   0.596   0.597   0.597
  0.599   0.600   0.601   0.602   0.602   0.603   0.606   0.606
  0.607   0.608   0.610   0.611   0.613   0.613   0.614   0.615
  0.616   0.617   0.619   0.620   0.621   0.623   0.624   0.625
  0.627   0.628   0.630   0.631   0.631   0.632   0.632   0.634
  0.635   0.636   0.636   0.637   0.638   0.638   0.639   0.641
  0.641   0.643   0.644   0.645   0.645   0.645   0.646   0.648
  0.650   0.651   0.651   0.652   0.654   0.655   0.656   0.659
  0.659   0.660   0.661   0.661   0.663   0.663   0.663   0.665
  0.666   0.667   0.667   0.668   0.668   0.669   0.670   0.670
  0.672   0.672   0.673   0.674   0.675   0.678   0.678   0.679
  0.680   0.682   0.684   0.684   0.687   0.687   0.689   0.690
  0.690   0.692   0.693   0.693   0.694   0.695   0.697   0.698
  0.699   0.701   0.702   0.702   0.703   0.705   0.705   0.707
  0.707   0.708   0.709   0.710   0.711   0.712   0.713   0.715
  0.717   0.718   0.719   0.721   0.721   0.723   0.724   0.726
  0.727   0.728   0.729   0.730   0.731   0.733   0.734   0.734
  0.736   0.737   0.737   0.738   0.740   0.741   0.742   0.744
  0.745   0.747   0.748   0.749   0.752   0.753   0.754   0.755
  0.756   0.757   0.758   0.760   0.762   0.764   0.765   0.765
  0.766   0.768   0.769   0.771   0.771   0.775   0.777   0.777
  0.778   0.780   0.780   0.782   0.783   0.785   0.786   0.788
  0.788   0.790   0.791   0.791   0.793   0.793   0.794   0.795
  0.797   0.797   0.798   0.799   0.800   0.801   0.802   0.803
  0.805   0.806   0.807   0.808   0.808   0.809   0.810   0.811
  0.812   0.812   0.813   0.814   0.815   0.815   0.816   0.816
  0.817   0.818   0.819   0.819   0.821   0.822   0.822   0.822
  0.824   0.825   0.825   0.826   0.828   0.829   0.829   0.830
  0.832   0.833   0.834   0.837   0.838   0.839   0.840   0.841
  0.848   0.849   0.852   0.852   0.853   0.854   0.855   0.859
  0.860   0.866   0.868   0.870   0.873   0.877   0.881   0.883
  0.886   0.888   0.894   0.895   0.896   0.898   0.903   0.905
  0.907   0.908   0.911   0.914   0.919   0.919   0.923   0.923
  0.926   0.928   0.929   0.930   0.931   0.932   0.935   0.935
  0.937   0.939   0.939   0.941   0.941   0.943   0.945   0.947
  0.948   0.950   0.952   0.953   0.957   0.964   0.965   0.967
  0.968   0.977   0.980   0.980   0.982   0.984   0.987   0.988
  0.993   0.993   0.996   0.997   0.999   1.000   1.003   1.005
  1.008   1.008   1.009   1.011   1.013   1.015   1.015   1.018
  1.019   1.021   1.022   1.022   1.024   1.025   1.026   1.028
  1.031   1.032   1.033   1.036   1.038   1.040   1.042   1.044
  1.044   1.045   1.046   1.047   1.049   1.051   1.056   1.058
  1.059   1.059   1.061   1.063   1.064   1.065   1.068   1.069
  1.070   1.071   1.073   1.074   1.076   1.076   1.078   1.080
  1.082   1.084   1.086   1.088   1.089   1.090   1.092   1.093
  1.094   1.097   1.098   1.099   1.100   1.102   1.104   1.105
  1.107   1.107   1.109   1.113   1.116   1.121   1.123   1.125
  1.127   1.129   1.129   1.132   1.134   1.137   1.140   1.140
  1.142   1.144   1.145   1.147   1.150   1.151   1.156   1.156
  1.158   1.159   1.161   1.162   1.163   1.165   1.168   1.169
  1.171   1.173   1.175   1.176   1.177   1.179   1.180   1.182
  1.184   1.187   1.188   1.189   1.191   1.192   1.194   1.196
  1.198   1.199   1.205   1.206   1.210   1.210   1.213   1.215
  1.217   1.221   1.222   1.227   1.229   1.231   1.233   1.235
  1.239   1.244   1.245   1.248   1.253   1.258   1.259   1.260
  1.261   1.264   1.264   1.269   1.270   1.271   1.273   1.274
  1.276   1.279   1.281   1.281   1.283   1.284   1.287   1.288
  1.290   1.291   1.293   1.295   1.300   1.303   1.304   1.308
  1.310   1.314   1.318   1.319   1.319   1.325   1.328   1.329
  1.335   1.337   1.338   1.341   1.342   1.344   1.345   1.345
  1.347   1.351   1.352   1.354   1.356   1.357   1.360   1.362
  1.364   1.365   1.368   1.369   1.372   1.376   1.377   1.381
  1.384   1.386   1.388   1.390   1.392   1.396   1.399   1.402
  1.404   1.406   1.409   1.413   1.413   1.414   1.420   1.422
  1.426   1.430   1.432   1.435   1.437   1.444   1.448   1.448
  1.450   1.451   1.453   1.455   1.459   1.460   1.461   1.462
  1.463   1.463   1.466   1.468   1.469   1.470   1.472   1.474
  1.475   1.476   1.479   1.482   1.486   1.486   1.491   1.495
  1.498   1.501   1.504   1.505   1.507   1.510   1.515   1.517
  1.521   1.522   1.525   1.527   1.529   1.530   1.534   1.538
  1.540   1.541   1.541   1.545   1.546   1.550   1.554   1.556
  1.558   1.558   1.561   1.562   1.565   1.567   1.568   1.570
  1.573   1.577   1.577   1.578   1.582   1.583   1.585   1.586
  1.590   1.593   1.596   1.601   1.607   1.609   1.612   1.615
  1.623   1.626   1.629   1.632   1.633   1.635   1.637   1.643
  1.646   1.648   1.653   1.664   1.665   1.666   1.668   1.672
  1.673   1.674   1.676   1.678   1.685   1.689   1.695   1.698
  1.700   1.702   1.705   1.705   1.709   1.711   1.712   1.713
  1.716   1.717   1.722   1.722   1.723   1.725   1.726   1.730
  1.732   1.733   1.737   1.740   1.741   1.741   1.743   1.744
  1.746   1.748   1.750   1.753   1.754   1.755   1.756   1.758
  1.759   1.760   1.762   1.762   1.764   1.765   1.766   1.767
  1.768   1.770   1.772   1.773   1.773   1.777   1.777   1.778
  1.780   1.780   1.783   1.784   1.785   1.786   1.787   1.787
  1.788   1.791   1.792   1.792   1.794   1.795   1.796   1.797
  1.798   1.800   1.801   1.802   1.804   1.805   1.806   1.807
  1.809   1.811   1.812   1.815   1.819   1.820   1.820   1.821
  1.824   1.825   1.825   1.831   1.832   1.834   1.839   1.840
  1.842   1.843   1.844   1.848   1.852   1.853   1.855   1.856
  1.860   1.861   1.861   1.862   1.864   1.866   1.868   1.870
  1.870   1.872   1.874   1.876   1.877   1.878   1.882   1.883
  1.884   1.888   1.889   1.891   1.896   1.897   1.897   1.902
  1.907   1.909   1.910   1.912   1.917   1.918   1.920   1.921
  1.922   1.923   1.926   1.926   1.929   1.931   1.932   1.934
  1.936   1.937   1.937   1.940   1.943   1.945   1.948   1.950
  1.953   1.956   1.957   1.958   1.963   1.965   1.966   1.969
  1.973   1.974   1.975   1.976   1.978   1.979   1.982   1.985
  1.987   1.988   1.989   1.990   1.990   1.992   1.993   1.994
  1.995   1.996   1.998   1.999   2.000   2.000   2.001   2.002
  2.004   2.004   2.007   2.008   2.010   2.011   2.014   2.016
  2.017   2.018   2.018   2.020   2.022   2.023   2.024   2.025
  2.027   2.027   2.028   2.030   2.030   2.031   2.032   2.033
  2.036   2.039   2.040   2.041   2.041   2.042   2.043   2.045
  2.045   2.047   2.048   2.049   2.051   2.051   2.052   2.055
  2.056   2.057   2.059   2.060   2.061   2.062   2.064   2.066
  2.067   2.067   2.068   2.069   2.070   2.071   2.072   2.074
  2.075   2.076   2.077   2.078   2.081   2.081   2.082   2.084
  2.085   2.088   2.090   2.093   2.093   2.094   2.096   2.098
  2.099   2.103   2.104   2.108   2.110   2.114   2.115   2.117
  2.119   2.121   2.123   2.125   2.128   2.133   2.135   2.139
  2.142   2.144   2.144   2.150   2.155   2.156   2.160   2.169
  2.170   2.171   2.183   2.188   2.195   2.196   2.197   2.201
  2.204   2.209   2.214   2.216   2.220   2.222   2.224   2.225
  2.228   2.231   2.232   2.236   2.237   2.240   2.243   2.247
  2.254   2.255   2.256   2.257   2.259   2.261   2.264   2.265
  2.269   2.271   2.272   2.272   2.273   2.276   2.279   2.279
  2.281   2.282   2.283   2.289   2.291   2.293   2.297   2.297
  2.299   2.300   2.303   2.310   2.312   2.313   2.315   2.319
  2.320   2.325   2.328   2.329   2.331   2.334   2.337   2.342
  2.344   2.346   2.346   2.348   2.350   2.352   2.356   2.358
  2.359   2.360   2.362   2.362   2.364   2.366   2.368   2.370
  2.370   2.371   2.375   2.376   2.378   2.381   2.381   2.382
  2.383   2.384   2.385   2.387   2.390   2.391   2.393   2.396
  2.397   2.398   2.403   2.404   2.405   2.407   2.409   2.410
  2.415   2.416   2.418   2.419   2.421   2.423   2.425   2.426
  2.427   2.431   2.436   2.437   2.440   2.441   2.441   2.446
  2.447   2.448   2.451   2.453   2.453   2.457   2.458   2.460
  2.464   2.465   2.466   2.467   2.469   2.471   2.472   2.475
  2.477   2.480   2.480   2.482   2.485   2.486   2.487   2.489
  2.492   2.492   2.494   2.496   2.499   2.500   2.503   2.504
  2.506   2.508   2.509   2.512   2.514   2.515   2.519   2.520
  2.522   2.524   2.525   2.528   2.531   2.532   2.534   2.537
  2.545   2.546   2.549   2.553   2.555   2.560   2.561   2.564
  2.570   2.573   2.574   2.576   2.577   2.578   2.582   2.582
  2.588   2.590   2.592   2.593   2.596   2.597   2.601   2.602
  2.604   2.605   2.607   2.608   2.609   2.612   2.614   2.616
  2.618   2.620   2.623   2.624   2.627   2.627   2.630   2.631
  2.634   2.635   2.637   2.638   2.639   2.641   2.643   2.645
  2.646   2.648   2.650   2.653   2.656   2.657   2.658   2.661
  2.664   2.665   2.666   2.666   2.668   2.669   2.670   2.672
  2.673   2.676   2.677   2.678   2.681   2.683   2.685   2.686
  2.691   2.694   2.696   2.701   2.701   2.703   2.705   2.709
  2.711   2.712   2.714   2.715   2.718   2.721   2.721   2.726
  2.727   2.728   2.729   2.734   2.736   2.739   2.741   2.743
  2.745   2.747   2.747   2.750   2.751   2.756   2.758   2.760
  2.762   2.763   2.766   2.767   2.768   2.771   2.773   2.776
  2.778   2.781   2.781   2.784   2.786   2.787   2.788   2.790
  2.793   2.796   2.797   2.803   2.804   2.807   2.814   2.815
  2.817   2.823   2.825   2.829   2.830   2.834   2.837   2.841
  2.842   2.843   2.850   2.853   2.855   2.858   2.859   2.861
  2.863   2.865   2.867   2.869   2.872   2.872   2.873   2.877
  2.879   2.880   2.883   2.884   2.885   2.887   2.888   2.892
  2.893   2.895   2.895   2.898   2.898   2.902   2.904   2.907
  2.909   2.909   2.913   2.914   2.916   2.918   2.918   2.921
  2.923   2.925   2.926   2.929   2.931   2.933   2.935   2.936
  2.937   2.939   2.940   2.941   2.946   2.950   2.950   2.952
  2.956   2.959   2.960   2.964   2.967   2.970   2.975   2.977
  2.984   2.988   2.989   2.993   2.994   2.996   3.000   3.003
  3.004   3.007   3.011   3.013   3.014   3.018   3.020   3.020
  3.024   3.028   3.029   3.030   3.032   3.037   3.040   3.042
  3.044   3.045   3.048   3.051   3.054   3.056   3.059   3.065
  3.066   3.070   3.077   3.078   3.081   3.084   3.089   3.090
  3.100   3.109   3.120   3.128   3.131   3.136   3.137   3.151
  3.151   3.161   3.162   3.172   3.182   3.182   3.190   3.192
  3.198   3.199   3.202   3.204   3.208   3.232   3.234   3.237
  3.242   3.247   3.258   3.262   3.267   3.272   3.279   3.284
  3.294   3.295   3.301   3.313   3.317   3.318   3.326   3.326
  3.329   3.336   3.342   3.349   3.350   3.363   3.363   3.367
  3.381   3.403   3.410   3.417   3.424   3.431   3.431   3.433
  3.439   3.443   3.462   3.473   3.474   3.482   3.484   3.487
  3.488   3.499   3.508   3.511   3.526   3.530   3.530   3.539
  3.550   3.555   3.555   3.559   3.582   3.585   3.589   3.597
  3.612   3.617   3.669   3.706   3.836   3.866   3.993   4.007
  4.066   4.067   4.069   4.079   4.082   4.091   4.097   4.099
  4.102   4.104   4.108   4.110   4.112   4.114   4.117   4.122
  4.124   4.126   4.128   4.138   4.141   4.145   4.148   4.149
  4.151   4.156   4.157   4.164   4.173   4.176   4.178   4.179
  4.181   4.189   4.195   4.201   4.204   4.223   4.224   4.236
  4.240   4.245   4.246   4.247   4.250   4.254   4.257   4.262
  4.265   4.268   4.280   4.282   4.284   4.284   4.291   4.293
  4.303   4.309   4.315   4.333   4.371   4.385   4.387   4.393
  4.396   4.397   4.401   4.405   4.405   4.413   4.414   4.415
  4.416   4.416   4.423   4.425   4.428   4.435   4.455   4.468
  4.485   4.487   4.488   4.517   4.524   4.542   4.543   4.551
  4.554   4.562   4.598   4.620   4.620   4.623   4.629   4.635
  4.647   4.659   4.672   4.688   4.690   4.693   4.695   4.698
  4.700   4.707   4.711   4.721   4.736   4.776   4.784   4.817
  4.830   4.858   4.862   4.864   4.866   4.869   4.879   4.898
  4.904   4.917   4.950   4.956   4.964   4.968   4.970   4.977
  4.988   4.992   5.012   5.018   5.156   5.166   5.171   5.182
  5.189   5.194   5.204   5.223   5.285   5.316   5.339   5.348
  5.359   5.374
 --------------------------------------------------------------
 
          Ground-State Mulliken Net Atomic Charges

     Atom                 Charge (a.u.)
  ----------------------------------------
      1 O                    -0.481842
      2 C                    -0.086187
      3 H                     0.123507
      4 H                     0.138143
      5 H                     0.121161
      6 O                    -0.453649
      7 C                     0.588235
      8 C                    -0.262332
      9 H                     0.137561
     10 H                     0.125645
     11 C                    -0.167093
     12 H                     0.113513
     13 H                     0.124903
     14 C                    -0.178798
     15 H                     0.099857
     16 H                     0.100158
     17 C                     0.002182
     18 C                     0.125901
     19 C                    -0.103955
     20 H                     0.088283
     21 C                    -0.088673
     22 H                     0.089761
     23 C                    -0.094392
     24 H                     0.088526
     25 C                    -0.088847
     26 H                     0.099979
     27 C                    -0.137768
     28 H                     0.092166
     29 C                    -0.026011
     30 C                    -0.047536
     31 C                    -0.013368
     32 C                    -0.004673
     33 C                     0.015618
     34 C                     0.027896
     35 C                     0.012613
     36 C                     0.012002
     37 C                     0.036191
     38 C                    -0.027127
     39 C                    -0.086480
     40 C                     0.033994
     41 C                    -0.013781
     42 C                    -0.011124
     43 C                     0.038095
     44 C                    -0.016304
     45 C                    -0.058504
     46 C                    -0.011024
     47 C                     0.001864
     48 C                     0.021988
     49 C                    -0.021645
     50 C                     0.004063
     51 C                    -0.017360
     52 C                     0.014538
     53 C                     0.006385
     54 C                    -0.010193
     55 C                     0.007106
     56 C                     0.008484
     57 C                    -0.041499
     58 C                     0.004531
     59 C                    -0.002284
     60 C                    -0.028413
     61 C                    -0.023173
     62 C                    -0.011284
     63 C                    -0.030276
     64 C                     0.013167
     65 C                    -0.027484
     66 C                    -0.000886
     67 C                    -0.013665
     68 C                     0.046124
     69 C                    -0.018331
     70 C                    -0.018724
     71 C                     0.021588
     72 C                     0.008706
     73 C                     0.016736
     74 C                    -0.013623
     75 C                    -0.002403
     76 C                     0.046175
     77 C                     0.006888
     78 C                    -0.021216
     79 C                     0.000692
     80 C                     0.031678
     81 C                     0.034764
     82 C                     0.022251
     83 C                     0.019084
     84 C                     0.015613
     85 C                     0.000510
     86 C                     0.014019
     87 C                    -0.015744
     88 C                    -0.024291
     89 O                    -0.475428
     90 C                    -0.086383
     91 H                     0.126316
     92 H                     0.126620
     93 H                     0.130058
     94 O                    -0.425192
     95 C                     0.574344
     96 C                    -0.237313
     97 H                     0.122369
     98 H                     0.126501
     99 C                    -0.211507
    100 H                     0.108019
    101 H                     0.118722
    102 C                    -0.190528
    103 H                     0.118799
    104 H                     0.112444
    105 C                     0.027216
    106 C                     0.074386
    107 C                    -0.110426
    108 H                     0.093511
    109 C                    -0.082530
    110 H                     0.094777
    111 C                    -0.077990
    112 H                     0.087381
    113 C                    -0.091458
    114 H                     0.094393
    115 C                    -0.107624
    116 H                     0.102928
    117 C                    -0.003603
    118 C                     0.005514
    119 C                     0.008594
    120 C                     0.016362
    121 C                     0.010589
    122 C                    -0.006244
    123 C                     0.008877
    124 C                    -0.018010
    125 C                    -0.002787
    126 C                     0.012031
    127 C                    -0.089897
    128 C                     0.021175
    129 C                    -0.013706
    130 C                     0.019372
    131 C                    -0.001784
    132 C                    -0.024188
    133 C                    -0.075604
    134 C                     0.039547
    135 C                    -0.019158
    136 C                     0.011195
    137 C                     0.014384
    138 C                    -0.027695
    139 C                     0.023043
    140 C                     0.002143
    141 C                     0.026680
    142 C                     0.011592
    143 C                     0.009376
    144 C                    -0.004554
    145 C                    -0.004226
    146 C                    -0.012267
    147 C                    -0.024148
    148 C                     0.045538
    149 C                     0.002769
    150 C                    -0.005532
    151 C                    -0.009539
    152 C                    -0.013969
    153 C                    -0.002780
    154 C                    -0.029063
    155 C                    -0.002910
    156 C                    -0.048127
    157 C                     0.003372
    158 C                     0.032935
    159 C                     0.016321
    160 C                    -0.011471
    161 C                     0.003009
    162 C                    -0.022990
    163 C                     0.004974
    164 C                    -0.016487
    165 C                     0.043408
    166 C                     0.012909
    167 C                    -0.006677
    168 C                    -0.029997
    169 C                     0.012663
    170 C                    -0.011182
    171 C                    -0.005281
    172 C                    -0.014302
    173 C                    -0.017536
    174 C                    -0.009688
    175 C                     0.011735
    176 C                     0.012014
  ----------------------------------------
  Sum of atomic charges =     0.000000

 -----------------------------------------------------------------
                    Cartesian Multipole Moments
 -----------------------------------------------------------------
    Charge (ESU x 10^10)
                 0.0000
    Dipole Moment (Debye)
         X      -1.0164      Y      -4.5179      Z       2.1473
       Tot       5.1045
    Quadrupole Moments (Debye-Ang)
        XX    -797.0871     XY     -14.9323     YY    -784.5634
        XZ     -33.2714     YZ     -22.0820     ZZ    -796.1257
    Octopole Moments (Debye-Ang^2)
       XXX    -169.0617    XXY    -363.6692    XYY     266.1687
       YYY    -590.6947    XXZ     211.1007    XYZ     145.9767
       YYZ     161.3550    XZZ      29.8842    YZZ    -136.0905
       ZZZ      -6.2026
    Hexadecapole Moments (Debye-Ang^3)
      XXXX -187862.0047   XXXY   -2937.0571   XXYY  -36562.5664
      XYYY   -2402.5330   YYYY  -43054.3000   XXXZ   -2436.7137
      XXYZ   -1632.8901   XYYZ   -1516.6376   YYYZ   -1332.5151
      XXZZ  -35159.6358   XYZZ      98.3110   YYZZ  -12126.5429
      XZZZ   -1607.6093   YZZZ    -257.0581   ZZZZ  -26635.8695
 -----------------------------------------------------------------
Archival summary:
1\1\mn251\SP\ProcedureUnspecified\6-31G**\428\afmv_a\FriOct1206:21:052018FriOct1206:21:052018\0\\#,ProcedureUnspecified,6-31G**,\\0,1\C\C,1,1.37538\C,1,1.38239,2,109.214\C,2,1.38438,1,109.058,3,1.77408,0\C,4,1.40563,2,118.997,1,139.74,0\C,5,1.3984,4,120.784,2,11.6603,0\C,3,1.4092,1,107.093,2,-2.72979,0\C,5,1.4118,4,119.766,2,-136.918,0\C,8,1.36329,5,107.647,4,150.67,0\C,8,1.40042,5,118.873,4,4.48803,0\C,10,1.40073,8,123.572,5,-1.1434,0\C,11,1.42006,10,110.753,8,143.459,0\C,12,1.4093,11,104.763,10,-0.371695,0\C,13,1.40387,12,117.5,11,-143.929,0\C,14,1.36094,13,117.102,12,137.095,0\C,14,1.37854,13,121.695,12,0.561882,0\C,15,1.41104,14,109.695,13,-142.817,0\C,17,1.38865,15,107.12,14,0.943636,0\C,15,1.41271,14,124.126,13,6.45807,0\C,19,1.36968,15,120.786,14,-139.921,0\C,19,1.37925,15,118.672,14,-5.77488,0\C,20,1.38138,19,108.669,15,141.722,0\C,20,1.38953,19,120.151,15,-4.76716,0\C,23,1.38035,20,121.793,19,-0.101697,0\C,21,1.39781,19,118.911,15,0.566212,0\C,23,1.40061,20,122.755,19,137.323,0\C,26,1.38285,23,116.364,20,3.08767,0\C,26,1.4025,23,111.535,20,-148.305,0\C,28,1.40047,26,106.226,23,6.39405,0\C,29,1.39031,28,120.776,26,134.919,0\C,21,1.40264,19,112.163,15,-139.399,0\C,27,1.40344,26,116.473,23,-139.92,0\C,32,1.39318,27,124.496,26,-4.31705,0\C,33,1.39253,32,121.246,27,139.05,0\C,34,1.40052,33,108.183,32,-137.442,0\C,35,1.40265,34,116.69,33,136.501,0\C,36,1.38673,35,122.865,34,5.46221,0\C,37,1.38846,36,109.167,35,-151.054,0\C,27,1.41245,26,122.38,23,-2.04027,0\C,33,1.41376,32,117.065,27,0.728746,0\C,38,1.41681,37,107.52,36,0.911876,0\C,40,1.41884,33,106.418,32,139.043,0\C,42,1.39561,40,120.493,33,-139.055,0\C,12,1.42031,11,118.761,10,-144.107,0\C,44,1.40315,12,118.746,11,3.67502,0\C,41,1.42199,38,122.882,37,135.691,0\C,46,1.34174,41,124.602,38,-133.922,0\C,47,1.41742,46,118.939,41,-2.86008,0\C,48,1.38316,47,119.142,46,141.315,0\C,48,1.3996,47,122.646,46,0.288447,0\C,47,1.41919,46,111.484,41,147.783,0\C,37,1.42275,36,120.042,35,-3.61832,0\C,52,1.37004,37,118.4,36,0.770622,0\C,52,1.39697,37,118.42,36,-138.625,0\C,54,1.39499,52,108.06,37,142.469,0\C,36,1.42343,35,121.116,34,-143.086,0\C,32,1.42605,27,106.871,26,145.888,0\C,57,1.40194,32,118.936,27,-148.113,0\C,39,1.45496,27,111.99,26,-152.471,0\C,59,1.48685,39,118.446,27,142.511,0\C,60,1.49203,59,61.5701,39,122.602,0\C,61,1.52298,60,120.053,59,106.865,0\C,62,1.41197,61,120.506,60,50.2983,0\H,63,1.08548,62,124.886,61,-3.27724,0\C,63,1.43814,62,120.755,61,173.172,0\H,65,1.08593,63,123.111,62,-173.063,0\C,65,1.38962,63,118.985,62,5.37406,0\H,67,1.08671,65,115.885,63,174.121,0\C,67,1.39291,65,122.059,63,-0.823662,0\H,69,1.08573,67,122.293,65,174.956,0\C,69,1.40506,67,119.782,65,-3.90667,0\H,71,1.08579,69,118.54,67,-179.129,0\C,61,1.55085,60,116.234,59,-105.194,0\H,73,1.09723,61,103.343,60,147.994,0\H,73,1.09747,61,116.745,60,27.341,0\C,73,1.62892,61,114.259,60,-95.3644,0\H,76,1.09677,73,106.271,61,-165.886,0\H,76,1.09736,73,115.1,61,-56.7196,0\C,76,1.60186,73,115.601,61,71.3401,0\H,79,1.09678,76,112.734,73,-51.0344,0\H,79,1.09765,76,99.5169,73,62.0385,0\C,79,1.57537,76,114.066,73,-177.737,0\O,82,1.17806,79,125.288,76,-103.802,0\O,82,1.38741,79,107.123,76,82.5033,0\C,84,1.45352,82,117.939,79,-164.176,0\H,85,1.09574,84,109.547,82,43.5896,0\H,85,1.09668,84,110.105,82,-71.1168,0\H,85,1.09703,84,106.274,82,167.768,0\C,38,3.77716,37,124.37,36,-96.7715,0\C,89,1.39206,38,85.8413,37,-173.648,0\C,90,1.3828,89,121.045,38,-136.227,0\C,91,1.34526,90,121.406,89,-0.61642,0\C,92,1.38407,91,124.534,90,-142.152,0\C,89,1.40056,38,90.5485,37,-53.6088,0\C,94,1.38028,89,120.95,38,-86.0261,0\C,95,1.37617,94,119.042,89,-139.74,0\C,95,1.38076,94,118.532,89,1.1258,0\C,96,1.38713,95,122.37,94,3.12113,0\C,98,1.38742,96,119.406,95,-0.429416,0\C,96,1.39171,95,105.857,94,144.119,0\C,100,1.35625,96,121.812,95,-138.221,0\C,101,1.39149,100,119.586,96,-3.98827,0\C,102,1.36398,101,120.175,100,2.31874,0\C,102,1.39117,101,106.698,100,145.422,0\C,99,1.39494,98,106.749,96,138.702,0\C,105,1.35686,99,111.112,98,6.95922,0\C,97,1.39629,95,122.197,94,0.837572,0\C,99,1.39779,98,118.416,96,-1.11983,0\C,105,1.40462,99,123.759,98,-146.118,0\C,109,1.35582,105,121.767,99,144.825,0\C,110,1.39302,109,123.789,105,0.757585,0\C,107,1.40489,97,120.63,95,-138.886,0\C,104,1.40591,102,119.729,101,-146.528,0\C,113,1.39447,104,118.526,102,142.784,0\C,114,1.39405,113,121.113,104,-0.174524,0\C,115,1.39949,114,120.024,113,-134.936,0\C,116,1.37716,115,123.352,114,-5.15424,0\C,116,1.39712,115,107.459,114,149.031,0\C,118,1.37234,116,114.633,115,-135.184,0\C,119,1.37549,118,121.693,116,-15.5214,0\C,120,1.38275,119,106.594,118,153.427,0\C,112,1.40857,107,110.577,97,138.953,0\C,114,1.40982,113,108.305,104,-144.081,0\C,104,1.41118,102,110.491,101,-0.0598272,0\C,124,1.37009,104,106.106,102,2.20692,0\C,125,1.39703,124,122.61,104,-150.697,0\C,126,1.3869,125,117.454,124,130.714,0\C,127,1.38154,126,109.508,125,-130.24,0\C,127,1.40628,126,120.485,125,14.7693,0\C,120,1.41276,119,123.155,118,5.93236,0\C,130,1.38647,120,119.423,119,132.05,0\C,131,1.38173,130,109.512,120,-136.82,0\C,108,1.4131,99,120.097,98,139.81,0\C,133,1.36521,108,110.303,99,-143.988,0\C,111,1.41421,110,112.12,109,-1.30624,0\C,123,1.41501,114,117.629,113,140.285,0\C,122,1.41656,112,117.876,107,-139.005,0\C,137,1.32231,122,124.652,112,-2.5928,0\C,138,1.3917,137,119.117,122,-2.44837,0\C,92,1.41834,91,122.19,90,3.6808,0\C,140,1.36629,92,109.851,91,-146.052,0\C,141,1.35869,140,120.887,92,135.916,0\C,141,1.41518,140,108.422,92,-4.39119,0\C,133,1.42186,108,116.355,99,-3.58688,0\C,115,1.43019,114,122.304,113,8.85796,0\C,110,1.44139,109,105.664,105,-140.253,0\C,145,1.45517,115,110.611,114,-148.573,0\C,139,1.48286,138,117.891,137,145.891,0\C,148,1.49993,139,126.09,138,70.3709,0\C,149,1.51642,148,120.46,139,148.355,0\H,150,1.09652,149,110.662,148,-79.9537,0\H,150,1.0968,149,108.046,148,24.2538,0\C,150,1.48165,149,113.512,148,150.331,0\H,153,1.09706,150,101.337,149,-59.705,0\H,153,1.09731,150,116.996,149,60.3328,0\C,153,1.5184,150,110.441,149,-173.193,0\H,156,1.09694,153,112.574,150,-53.1209,0\H,156,1.0975,153,103.692,150,75.4891,0\C,156,1.4912,153,118.152,150,-168.019,0\O,159,1.19468,156,121.813,153,-26.1896,0\O,159,1.37742,156,113.162,153,145.307,0\C,161,1.43832,159,120.562,156,178.738,0\H,162,1.09706,161,108.237,159,91.8162,0\H,162,1.09743,161,106.417,159,-160.084,0\H,162,1.09761,161,114.754,159,-30.4635,0\C,149,1.55055,148,120.421,139,2.63201,0\C,166,1.35865,149,119.801,148,70.0958,0\H,167,1.08568,166,117.177,149,3.509,0\C,167,1.36698,166,120.71,149,-169.358,0\H,169,1.08633,167,114.029,166,174.892,0\C,166,1.37129,149,121.017,148,-102.046,0\H,171,1.08573,166,124.676,149,-18.1126,0\C,171,1.41288,166,124.631,149,172.223,0\H,173,1.08622,171,124.975,166,178.775,0\C,173,1.40245,171,113.942,166,-8.87788,0\H,175,1.08602,173,113.396,171,-162.577,0\\\@

 Total job time:  838.66s(wall), 8017.21s(cpu) 
 Fri Oct 12 06:21:05 2018

        *************************************************************
        *                                                           *
        *  Thank you very much for using Q-Chem.  Have a nice day.  *
        *                                                           *
        *************************************************************


