
Running Job 1 of 1 ./7/24.qcin
qchem ./7/24.qcin_28137.0 /tmpu/cab_g/afmv_a/scratch_qchem/qchem28137/ 1
/tmpu/appuserlic/qchem4.4/serial-multicore/exe/qcprog.exe_s ./7/24.qcin_28137.0 /tmpu/cab_g/afmv_a/scratch_qchem/qchem28137/
Check license passed

                  Welcome to Q-Chem
     A Quantum Leap Into The Future Of Chemistry


 Q-Chem 4.4, Q-Chem, Inc., Pleasanton, CA (2016)

 Y. Shao,  Z. Gan,  E. Epifanovsky,  A. T. B. Gilbert,  M. Wormit,  
 J. Kussmann,  A. W. Lange,  A. Behn,  J. Deng,  X. Feng,  D. Ghosh,  
 M. Goldey,  P. R. Horn,  L. D. Jacobson,  I. Kaliman,  F. Rob,  
 R. Z. Khaliullin,  T. Kus,  A. Landau,  J. Liu,  E. I. Proynov,  Y. M. Rhee,  
 R. M. Richard,  M. A. Rohrdanz,  R. P. Steele,  E. J. Sundstrom,  
 H. L. Woodcock III,  P. M. Zimmerman,  D. Zuev,  B. Albrecht,  E. Alguire,  
 B. Austin,  S. A. Baeppler,  G. J. O. Beran,  Y. A. Bernard,  E. Berquist,  
 K. Brandhorst,  K. B. Bravaya,  S. T. Brown,  D. Casanova,  C.-M. Chang,  
 Y. Chen,  S. H. Chien,  K. D. Closser,  M. P. Coons,  D. L. Crittenden,  
 S. Dasgupta,  M. Diedenhofen,  R. A. DiStasio Jr.,  H. Do,  A. D. Dutoi,  
 R. G. Edgar,  P.-T. Fang,  S. Fatehi,  Q. Feng,  L. Fusti-Molnar,  
 A. Ghysels,  A. Golubeva-Zadorozhnaya,  J. Gomes,  A. Gunina,  
 M. W. D. Hanson-Heine,  P. H. P. Harbach,  A. W. Hauser,  J. E. Herr,  
 E. G. Hohenstein,  Z. C. Holden,  K. Hui,  T.-C. Jagau,  H. Ji,  B. Kaduk,  
 K. Khistyaev,  Jaehoon Kim,  Jihan Kim,  R. A. King,  P. Klunzinger,  
 K. Koh,  D. Kosenkov,  T. Kowalczyk,  C. M. Krauter,  A. Kunitsa,  
 K. U. Lao,  A. Laurent,  K. V. Lawler,  J. Lee,  D. Lefrancois,  S. Lehtola,  
 S. V. Levchenko,  C. Y. Lin,  Y.-S. Lin,  F. Liu,  E. Livshits,  
 R. C. Lochan,  A. Luenser,  P. Manohar,  S. F. Manzer,  S.-P. Mao,  Y. Mao,  
 N. Mardirossian,  A. V. Marenich,  L. A. Martinez-Martinez,  S. A. Maurer,  
 N. J. Mayhall,  J.-M. Mewes,  A. F. Morrison,  K. Nanda,  T. S. Nguyen-Beck,  
 C. M. Oana,  R. Olivares-Amaya,  D. P. O'Neill,  J. A. Parkhill,  
 T. M. Perrine,  R. Peverati,  P. A. Pieniazek,  F. Plasser,  A. Prociuk,  
 D. R. Rehn,  E. Rosta,  N. J. Russ,  N. Sergueev,  S. M. Sharada,  
 S. Sharma,  D. W. Small,  A. Sodt,  T. Stauch,  T. Stein,  D. Stuck,  
 Y.-C. Su,  A. J. W. Thom,  T. Tsuchimochi,  L. Vogt,  O. Vydrov,  T. Wang,  
 M. A. Watson,  J. Wenzel,  A. White,  C. F. Williams,  V. Vanovschi,  
 K. Yao,  S. Yeganeh,  S. R. Yost,  Z.-Q. You,  I. Y. Zhang,  X. Zhang,  
 Y. Zhao,  B. R. Brooks,  G. K. L. Chan,  D. M. Chipman,  C. J. Cramer,  
 W. A. Goddard III,  M. S. Gordon,  W. J. Hehre,  A. Klamt,  
 H. F. Schaefer III,  M. W. Schmidt,  C. D. Sherrill,  D. G. Truhlar,  
 A. Warshel,  X. Xu,  A. Aspuru-Guzik,  R. Baer,  A. T. Bell,  N. A. Besley,  
 J.-D. Chai,  A. Dreuw,  B. D. Dunietz,  T. R. Furlani,  S. R. Gwaltney,  
 C.-P. Hsu,  Y. Jung,  J. Kong,  D. S. Lambrecht,  W. Liang,  C. Ochsenfeld,  
 V. A. Rassolov,  L. V. Slipchenko,  J. E. Subotnik,  T. Van Voorhis,  
 J. M. Herbert,  A. I. Krylov,  P. M. W. Gill,  M. Head-Gordon

 Contributors to earlier versions of Q-Chem not listed above: 
 R. D. Adamson,  J. Baker,  E. F. C. Byrd,  A. K. Chakraborty,  C.-L. Cheng,  
 H. Dachsel,  R. J. Doerksen,  G. Hawkins,  A. Heyden,  S. Hirata,  
 G. Kedziora,  F. J. Keil,  C. Kelley,  P. P. Korambath,  W. Kurlancheek,  
 A. M. Lee,  M. S. Lee,  D. Liotard,  I. Lotan,  P. E. Maslen,  N. Nair,  
 D. Neuhauser,  R. Olson,  B. Peters,  J. Ritchie,  N. E. Schultz,  
 N. Shenvi,  A. C. Simmonett,  K. S. Thanthiriwatte,  Q. Wu,  W. Zhang

 Please cite Q-Chem as follows:
 Y. Shao et al., Mol. Phys. 113, 184-215 (2015)
 DOI: 10.1080/00268976.2014.952696

 Q-Chem 4.4.2 for Intel X86 Linux

 Parts of Q-Chem use Armadillo 5.200.1 (Boston Tea Smuggler).
 http://arma.sourceforge.net/

 Q-Chem begins on Fri Oct 12 06:49:26 2018  

Host: 
0

     Scratch files written to /tmpu/cab_g/afmv_a/scratch_qchem/qchem28137//
 Dec716 11556_ 22328  22283 4050   
Processing $rem in /tmpu/appuserlic/qchem4.4/serial-multicore/config/preferences.
 MEM_TOTAL  2000 
FILE_GEOM_ORG=        593

Checking the input file for inconsistencies... 	...done.

--------------------------------------------------------------
User input:
--------------------------------------------------------------
$comment
SP
$end

$rem
MEM_STATIC 5000
MEM_TOTAL 20000
JOBTYPE SP
EXCHANGE B3LYP
BASIS 6-31g(d,p)
$end

$molecule
0 1
O         -10.519000      6.900000     -1.511000
C         -11.064000      7.939000     -2.343000
H         -10.225000      8.344000     -2.923000
H         -11.681000      8.676000     -1.813000
H         -11.662000      7.468000     -3.133000
O         -12.318000      6.782000     -0.120000
C         -11.196000      6.473000     -0.390000
C         -10.469000      5.413000      0.366000
H          -9.973000      5.929000      1.198000
H          -9.841000      5.018000     -0.442000
C         -11.287000      4.332000      1.050000
H         -11.628000      4.739000      2.010000
H         -12.146000      4.064000      0.422000
C         -10.410000      3.225000      1.498000
H          -9.844000      2.748000      0.689000
H          -9.538000      3.573000      2.065000
C         -11.129000      2.184000      2.334000
C         -12.272000      1.517000      1.526000
C         -11.981000      0.551000      0.616000
H         -10.932000      0.325000      0.451000
C         -12.975000     -0.199000      0.052000
H         -12.616000     -0.996000     -0.593000
C         -14.322000     -0.021000      0.470000
H         -15.146000     -0.703000      0.282000
C         -14.684000      1.089000      1.247000
H         -15.728000      1.296000      1.464000
C         -13.587000      1.768000      1.823000
H         -13.938000      2.614000      2.406000
C         -13.650000      1.365000      7.180000
C         -12.772000     -0.801000      6.488000
C          -9.391000     -1.091000      9.544000
C          -9.762000      4.663000      6.964000
C          -6.895000     -0.177000      7.244000
C         -13.287000      0.443000      6.173000
C          -7.388000      3.340000      7.622000
C         -11.657000     -0.220000      9.776000
C          -9.467000     -0.596000      4.251000
C          -8.900000      4.186000      5.961000
C         -10.390000      1.410000      3.385000
C          -8.418000      0.297000      4.147000
C          -7.465000      2.586000      5.357000
C          -6.789000      2.116000      8.014000
C         -11.842000     -0.224000      4.520000
C          -7.677000      0.409000      9.436000
C         -11.361000      2.466000      3.799000
C         -10.834000      3.632000      4.492000
C          -7.418000     -0.565000      8.461000
C         -10.623000      3.210000      9.935000
C          -9.757000      1.123000     10.419000
C         -11.182000      0.941000     10.298000
C         -12.723000     -0.136000      8.849000
C         -11.656000      3.965000      5.614000
C         -10.673000      0.016000      3.804000
C         -12.435000     -1.098000      7.837000
C          -7.706000      3.566000      6.315000
C         -11.845000     -1.163000      5.451000
C          -7.366000      0.249000      5.079000
C         -11.738000      4.271000      8.017000
C         -10.804000     -1.205000      9.365000
C          -8.891000      1.515000      3.682000
C         -12.820000      2.285000      9.071000
C          -6.869000      1.424000      5.723000
C          -9.487000     -1.644000      5.196000
C          -8.288000      2.752000      9.542000
C          -8.206000      3.790000      8.672000
C          -8.435000     -1.690000      6.126000
C         -11.138000      4.545000      6.771000
C          -9.426000      3.610000      4.785000
C         -10.688000      4.223000      8.981000
C         -12.551000      2.138000      4.642000
C         -10.360000     -2.147000      7.181000
C          -8.520000      2.662000      4.388000
C          -7.415000     -0.737000      6.094000
C         -12.798000      3.334000      8.043000
C          -8.469000     -1.488000      8.532000
C         -13.283000      1.118000      8.494000
C          -8.881000      0.054000     10.085000
C         -10.715000     -1.932000      5.823000
C          -8.994000     -2.036000      7.365000
C         -12.708000      0.818000      4.983000
C         -12.698000      3.035000      5.703000
C          -9.496000      2.511000     10.217000
C         -11.230000     -1.720000      8.114000
C          -6.561000      1.144000      7.051000
C          -9.451000      4.415000      8.323000
C          -7.366000      1.755000      9.223000
C         -13.332000      2.719000      6.884000
C         -11.698000      2.251000      9.983000
O          -9.246000     14.286000     10.883000
C         -10.355000     15.157000     11.255000
H          -9.977000     16.164000     11.465000
H         -11.012000     14.757000     12.037000
H         -11.006000     15.201000     10.373000
O          -8.647000     15.341000      8.942000
C          -8.428000     14.573000      9.845000
C          -7.187000     13.672000      9.901000
H          -7.601000     12.672000      9.724000
H          -6.798000     13.778000     10.921000
C          -6.137000     14.036000      8.804000
H          -6.275000     15.035000      8.373000
H          -5.207000     13.975000      9.384000
C          -6.058000     12.905000      7.765000
H          -5.008000     12.734000      7.494000
H          -6.257000     11.906000      8.171000
C          -6.700000     13.164000      6.394000
C          -6.026000     14.295000      5.692000
C          -6.531000     15.591000      5.789000
H          -7.364000     15.748000      6.467000
C          -5.912000     16.614000      5.121000
H          -6.228000     17.647000      5.234000
C          -4.759000     16.421000      4.298000
H          -4.307000     17.164000      3.648000
C          -4.308000     15.082000      4.132000
H          -3.411000     14.833000      3.573000
C          -4.898000     14.037000      4.893000
H          -4.448000     13.050000      4.845000
C         -11.570000     13.934000      3.948000
C         -10.270000     12.932000      2.213000
C         -12.338000      8.923000      2.209000
C         -11.443000     11.047000      8.112000
C          -9.845000      7.324000      4.176000
C         -10.355000     13.721000      3.342000
C         -11.209000      8.395000      7.350000
C         -13.307000     11.194000      2.387000
C          -7.489000     10.485000      3.801000
C         -10.154000     10.390000      8.133000
C          -7.278000     12.020000      5.617000
C          -7.362000      9.713000      4.894000
C          -8.812000      8.882000      7.179000
C         -11.182000      7.595000      6.293000
C          -8.297000     12.710000      3.409000
C         -12.293000      7.653000      4.110000
C          -8.154000     13.037000      6.331000
C          -9.084000     12.486000      7.362000
C         -11.054000      7.446000      3.497000
C         -14.114000     10.786000      5.795000
C         -13.938000      9.448000      3.966000
C         -14.098000     10.777000      3.493000
C         -12.674000     12.426000      2.370000
C         -10.417000     13.053000      7.255000
C          -7.443000     11.869000      4.137000
C         -11.431000     12.258000      1.729000
C         -10.043000      9.108000      7.735000
C          -9.000000     12.264000      2.288000
C          -8.007000      8.424000      4.867000
C         -12.761000     12.499000      6.989000
C         -12.479000     10.243000      1.720000
C          -7.346000     10.513000      6.050000
C         -13.435000     12.807000      4.683000
C          -8.767000      8.023000      6.075000
C          -8.164000     10.051000      2.675000
C         -13.206000      8.608000      6.158000
C         -12.489000      9.042000      7.296000
C          -8.718000      8.772000      2.588000
C         -11.547000     12.404000      7.700000
C          -9.034000     11.092000      7.684000
C         -13.338000     11.259000      6.950000
C          -9.168000     13.799000      5.483000
C         -10.044000     10.227000      1.399000
C          -8.194000     10.152000      7.090000
C          -8.647000      7.920000      3.756000
C         -12.816000     13.284000      5.797000
C         -11.080000      8.266000      2.323000
C         -12.703000     13.219000      3.539000
C         -13.081000      8.526000      3.335000
C          -8.933000     10.943000      1.898000
C          -9.912000      8.904000      1.878000
C          -9.167000     13.595000      4.102000
C         -10.430000     13.851000      6.100000
C         -14.056000      9.444000      5.394000
C         -11.293000     10.891000      1.355000
C          -9.935000      7.387000      5.613000
C         -12.561000     10.376000      7.665000
C         -12.382000      7.639000      5.545000
C         -11.641000     13.962000      5.327000
C         -14.096000     11.582000      4.597000
$end

--------------------------------------------------------------
 ----------------------------------------------------------------
             Standard Nuclear Orientation (Angstroms)
    I     Atom           X                Y                Z
 ----------------------------------------------------------------
    1      O      -0.5276604139    -6.5866706073    -2.3516703363
    2      C      -1.5413288511    -7.5620364920    -2.0518242249
    3      H      -2.0584499334    -7.7724277949    -2.9966349392
    4      H      -2.1842624842    -7.3093790976    -1.1988537773
    5      H      -1.0474385046    -8.5227231331    -1.8602556906
    6      O      -0.1574724157    -5.9978053209    -0.1833980931
    7      C       0.0194432021    -5.8147198578    -1.3506365338
    8      C       1.0313840557    -4.8392952452    -1.8488207707
    9      H       0.5054223936    -3.8791093371    -1.9256540445
   10      H       1.3205210018    -5.3433606813    -2.7791921280
   11      C       2.2226794406    -4.5264748536    -0.9608457100
   12      H       1.8986104283    -3.7714140936    -0.2339395785
   13      H       2.5497599327    -5.4379255550    -0.4447401290
   14      C       3.2513112561    -3.7774349398    -1.7198831239
   15      H       3.6283562266    -4.3065417909    -2.6032001849
   16      H       2.8405660385    -2.9170527578    -2.2621080469
   17      C       4.3995511846    -3.2860908630    -0.8598458777
   18      C       5.1444028091    -4.4741384626    -0.1980748004
   19      C       6.0313483829    -5.2037029867    -0.9240225632
   20      H       6.1383277033    -4.9517163782    -1.9746224748
   21      C       6.8543652273    -6.1093538484    -0.3148659409
   22      H       7.5785936599    -6.5677973587    -0.9822771524
   23      C       6.8380205653    -6.2430292225     1.1002950911
   24      H       7.5931203669    -6.7360407361     1.7054462599
   25      C       5.8092903039    -5.6632151501     1.8568680821
   26      H       5.7230743746    -5.8653449078     2.9206276295
   27      C       5.0465738435    -4.7069217351     1.1497666003
   28      H       4.2699539389    -4.3024728151     1.7917078709
   29      C       5.7020235333     0.2099624278     3.2133709307
   30      C       7.7296956514    -0.0948688884     1.8954454206
   31      C       7.8054034039     4.0283216508    -0.0661776609
   32      C       2.0084630307     1.5187554470    -0.0553712809
   33      C       6.5292805656     2.8716896577    -3.1303455633
   34      C       6.5332173639    -0.5812042574     2.3893114109
   35      C       3.1046094691     3.0386244950    -2.1308543722
   36      C       7.1882545136     3.3701197166     2.1994609822
   37      C       7.0760879792    -0.8829305183    -1.9673223537
   38      C       2.3455037555     0.9248817319    -1.2843137370
   39      C       5.1398026081    -2.0331953184    -1.2232720521
   40      C       6.0742639405    -0.5719861345    -2.8663930882
   41      C       3.7566407400     0.9175074278    -3.0142498718
   42      C       4.2759926757     3.6284558975    -2.6699288569
   43      C       6.9677876297    -1.5502505396     0.3552462725
   44      C       6.1307338204     4.5936168968    -1.5067966496
   45      C       4.2116681599    -2.0233794240    -0.0537238084
   46      C       3.0302906240    -1.1779106319    -0.1377692680
   47      C       7.0259633420     3.7917197316    -2.2292279889
   48      C       3.6799042100     3.9239895785     1.7054535703
   49      C       5.6849063943     4.6996489241     0.8580458643
   50      C       6.0093584049     4.0377547269     2.0970038799
   51      C       7.1734646482     2.1037970928     2.8310852949
   52      C       2.8376322760    -0.4591634910     1.0835997624
   53      C       6.5737051961    -1.7591768788    -0.9630351164
   54      C       8.0520191552     1.2789834215     2.0692740414
   55      C       2.8527766826     1.7106806364    -2.3141420038
   56      C       7.9441077674    -0.6947542017     0.6070716180
   57      C       6.0549892007     0.6936337426    -3.4791465550
   58      C       2.6537078612     1.7268441268     2.1142847310
   59      C       8.0583555989     3.3177120154     1.1473523689
   60      C       4.8922568518    -1.1805624643    -2.4714600647
   61      C       4.7888619464     2.2769803602     3.2823186164
   62      C       4.8655402577     1.4823432934    -3.5534328689
   63      C       8.1631206403    -0.0213388906    -1.7070362404
   64      C       3.8720760348     4.4612721989    -0.6377995905
   65      C       2.7919624253     3.6927710155    -0.9273311461
   66      C       8.1417662903     1.2424406577    -2.3203267467
   67      C       2.2608638443     0.8094966160     1.1184237353
   68      C       2.9182551064    -0.3643841991    -1.3186247994
   69      C       2.6361270495     3.0212142602     1.5156221609
   70      C       4.7012622690    -1.7056014798     1.3223749478
   71      C       8.8463339183     1.4718967551    -0.2040958148
   72      C       3.7466976772    -0.3833376322    -2.4097126393
   73      C       7.0867148798     1.6087637154    -3.1583642986
   74      C       3.6967761211     1.3395902728     2.9885204302
   75      C       8.0562685435     3.4494872614    -1.3444008149
   76      C       5.9699102266     1.5632202607     3.3520214165
   77      C       6.6396172285     4.7269515258    -0.1952702284
   78      C       8.6069385003     0.0825996953    -0.3742648882
   79      C       8.6015169838     2.1689773208    -1.3729740606
   80      C       6.0448357117    -1.4547490598     1.4457178331
   81      C       3.8747836731    -0.7813340428     1.9662707742
   82      C       4.2693350505     4.6173232200     0.7004094191
   83      C       8.5565547841     1.9979846409     0.9996390355
   84      C       5.1730391576     2.8256730796    -3.3591199454
   85      C       2.2852964113     2.8919188351     0.1517315654
   86      C       4.7511383884     4.5203345929    -1.7192869978
   87      C       4.3098972911     0.0628276607     2.9635872525
   88      C       4.7474193744     3.5511916757     2.5993456765
   89      O      -7.4234359631     5.3564273565     2.0750046689
   90      C      -8.1552817150     5.2738058445     3.3337665531
   91      H      -9.1855045575     5.6158059440     3.1830687540
   92      H      -7.6528210091     5.7407900789     4.1897057821
   93      H      -8.1717170750     4.2090280052     3.5976586368
   94      O      -8.6242736118     3.7993858441     0.9032889738
   95      C      -7.8423802173     4.7151177096     0.9604892367
   96      C      -7.0747041299     5.2434547983    -0.2587528827
   97      H      -6.0461335179     4.9180255827    -0.0616150584
   98      H      -7.1734361305     6.3348142652    -0.2124548697
   99      C      -7.5971794846     4.6374144770    -1.5997001720
  100      H      -8.5951410988     4.1889382602    -1.5238865888
  101      H      -7.6070895764     5.5311887953    -2.2369522870
  102      C      -6.5300981411     3.7066452046    -2.1996409757
  103      H      -6.4827786681     3.8613580165    -3.2854617774
  104      H      -5.4979967977     4.0020278560    -1.9761372706
  105      C      -6.7837447989     2.1947229677    -2.1066865646
  106      C      -8.0104625618     1.8098547156    -2.8638397582
  107      C      -9.2405338575     1.7075974445    -2.2153661210
  108      H      -9.2777952410     2.0120615450    -1.1741479879
  109      C     -10.3526243883     1.3326160089    -2.9214522165
  110      H     -11.3404819442     1.3174140402    -2.4702091008
  111      C     -10.3198451211     1.0177645168    -4.3156477041
  112      H     -11.1354514333     0.5942821778    -4.8938362997
  113      C      -9.0446014398     1.0354264540    -4.9459806393
  114      H      -8.9171292446     0.8652206565    -6.0108148170
  115      C      -7.9093792420     1.5073428077    -4.2333716885
  116      H      -6.9782395659     1.6343246043    -4.7772719798
  117      C      -7.1520284318    -1.9390774616     1.5083898076
  118      C      -6.3732793166    -3.0405239514    -0.4625476459
  119      C      -2.1742431279    -3.8517474636     0.9722807410
  120      C      -4.1041755398     1.9445494670     2.6563569798
  121      C      -0.7556558214    -1.0789922809    -0.7424722297
  122      C      -7.0958087641    -2.0298588423     0.1381970876
  123      C      -1.5294937000     1.3254904860     1.8462437766
  124      C      -4.3205358315    -4.0559726031     2.1887533970
  125      C      -4.1600229882    -0.5083282762    -2.6835824244
  126      C      -3.5855444945     2.4597021778     1.4076574469
  127      C      -5.6227770176     1.2521337289    -2.0055513202
  128      C      -3.3557054463     0.5471828720    -2.4697331598
  129      C      -2.2722964552     2.0937685442    -0.3605665669
  130      C      -0.7866214150     0.3588444206     1.3249817001
  131      C      -6.3039241721    -1.1764023549    -1.8382909131
  132      C      -0.8291329816    -2.0836398464     1.5137603328
  133      C      -6.5082025183     1.5752796114    -0.8126307775
  134      C      -5.8155894620     2.1662841170     0.3716254568
  135      C      -0.7817124402    -2.1716045099     0.1195750832
  136      C      -3.6725993602    -1.2242395810     4.1871636203
  137      C      -2.4466881845    -2.8469010227     3.1719923860
  138      C      -3.7721211514    -3.3418225572     3.2896789398
  139      C      -5.6115178656    -3.8244643025     1.7431400060
  140      C      -6.2441936139     1.5545983518     1.6174047333
  141      C      -5.5241431716    -0.1772824008    -2.4385257912
  142      C      -5.6045584336    -3.9366238309     0.3390296804
  143      C      -2.3420740304     2.1322795294     1.0066280038
  144      C      -5.8392255279    -2.4829103614    -1.6744068106
  145      C      -2.0088828173     0.2703151701    -2.0365033342
  146      C      -5.4606553245     0.4034504243     3.6005674089
  147      C      -3.4934677406    -4.3541204956     1.0653922764
  148      C      -4.0984893414     1.6217537618    -1.9499625489
  149      C      -5.8030008738    -1.9832957388     3.3703104266
  150      C      -1.4748782920     1.0905659329    -0.9230883832
  151      C      -3.7104101766    -1.8086166880    -2.5459039376
  152      C      -1.5872086344    -0.5442226993     3.2444868137
  153      C      -2.0406641199     0.7833419046     3.0729078372
  154      C      -2.3858369273    -2.1057022369    -2.2179224078
  155      C      -5.4604602460     1.5275785228     2.7492872082
  156      C      -4.4210670301     2.4793003293     0.2894790153
  157      C      -4.1701895041     0.1418668323     3.9724840539
  158      C      -7.1983108693     0.4035279524    -0.1207546951
  159      C      -3.7475206414    -3.7107698568    -1.2913170988
  160      C      -3.6027971051     2.2531558664    -0.8156585380
  161      C      -1.4927011358    -1.0027980255    -1.9331773317
  162      C      -6.2900214753    -0.7155822948     3.2842897439
  163      C      -1.6480508111    -3.2627577749    -0.2123803044
  164      C      -6.3420312175    -2.7552798930     2.3083354955
  165      C      -1.6497968196    -3.1005777454     2.0391612985
  166      C      -4.5520318817    -2.8200231344    -2.0365083096
  167      C      -2.4248369502    -3.2211022210    -1.3803533815
  168      C      -7.0598213325    -0.8706315070    -0.6740324918
  169      C      -7.0891571376     0.4859369974     1.2782918417
  170      C      -2.3641115272    -1.5750234461     3.8266927187
  171      C      -4.2783623855    -4.2316909168    -0.0872899845
  172      C      -0.7421534636     0.2121525432    -0.1023154288
  173      C      -3.3412226109     1.0991828326     3.4330371467
  174      C      -0.7393350766    -0.7941388221     2.1434153531
  175      C      -7.1084372128    -0.6941939941     2.1049054888
  176      C      -4.5208178914    -2.3206146669     3.8029358309
 ----------------------------------------------------------------
 Molecular Point Group                 C1    NOp =  1
 Largest Abelian Subgroup              C1    NOp =  1
 Nuclear Repulsion Energy = 35137.0126415777 hartrees
 There are      462 alpha and      462 beta electrons
 Requested basis set is 6-31G(d,p)
 There are 676 shells and 2360 basis functions

 Total QAlloc Memory Limit  20000 MB
 Mega-Array Size      4888 MB
 MEM_STATIC part      5000 MB
 A cutoff of  1.0D-08 yielded  38574 shell pairs
 There are    541355 function pairs
 
 -------------------------------------------------------
 OpenMP Integral Computing Module                       
 Release: version 1.0, May 2013, Q-Chem Inc. Pittsburgh 
 -------------------------------------------------------
 Integral Job Info:
 Integral job number is                      11
 Integral operator is                         1
 short-range coefficients                     0
 long-range coefficients              100000000
 Omega coefficients                           0
 if combine SR and LR in K                    0
 Integral screening is                        0
 Integral computing path is                   2
 max size of driver memory is            800000
 size of driver memory is                593474
 size of scratch memory is              2260544
 max col of scratch BK array               1296
 max len of scratch array in speh3          155
 max len of scratch index in speh4           18
 max int batch size is                      520
 min int batch size is                       52
 fixed nKL is                                52
 max L of basis functions is                  2
 order of int derivative is                   0
 number of shells is                        676
 number of basis is                        2360
 number of cartesian basis is              2360
 number of contracted shell pairs         38574
 number of primitive shell pairs         116294
 maxK2 (contraction) of shell pair           36
 max number of K2 of shell pair               1
 max number of CS2 of shell pair           7385
 max number of PS2 of shell pair          35442
 mem total for path MDJ                 1542312
 -------------------------------------------------------
 Smallest overlap matrix eigenvalue = 2.43E-04

 Scale SEOQF with 1.000000e-02/1.000000e-02/1.000000e-02

 Standard Electronic Orientation quadrupole field applied
 Nucleus-field energy     =     0.0000001151 hartrees
 Guess from superposition of atomic densities
 Warning:  Energy on first SCF cycle will be non-variational
 A restricted hybrid HF-DFT SCF calculation will be
 performed using Pulay DIIS extrapolation
 Exchange:     0.2000 Hartree-Fock + 0.0800 Slater + 0.7200 B88
 Correlation:  0.1900 VWN1RPA + 0.8100 LYP
 Using SG-1 standard quadrature grid
 SCF converges when DIIS error is below 1.0E-05
 using 16 threads for integral computing 
 -------------------------------------------------------
 OpenMP BLAS3 based DFT computing Module                
 Release: version 1.0, May 2013, Q-Chem Inc. Pittsburgh 
 -------------------------------------------------------
 ---------------------------------------
  Cycle       Energy         DIIS Error
 ---------------------------------------
    1   -5859.0652296831      1.84E-02
    2   -5803.0900271667      1.30E-03
    3   -5802.4546057468      1.73E-03
    4   -5804.0069597332      5.85E-04
    5   -5804.1799113576      2.86E-04
    6   -5804.2328736882      1.26E-04
    7   -5804.2433983066      4.55E-05
    8   -5804.2442901484      2.98E-05
    9   -5804.2449484216      7.83E-06 Convergence criterion met
 ---------------------------------------
 SCF time:  CPU 8462.72 s  wall 877.22 s
 SCF   energy in the final basis set = -5804.2449484216
 Total energy in the final basis set = -5804.2449484216
 
 --------------------------------------------------------------
 
                    Orbital Energies (a.u.)
 --------------------------------------------------------------
 
 Alpha MOs
 -- Occupied --
-19.193 -19.187 -19.142 -19.131 -10.318 -10.309 -10.251 -10.242
-10.239 -10.234 -10.233 -10.231 -10.230 -10.228 -10.227 -10.226
-10.224 -10.223 -10.222 -10.222 -10.221 -10.220 -10.220 -10.220
-10.219 -10.219 -10.219 -10.219 -10.219 -10.218 -10.218 -10.218
-10.218 -10.218 -10.218 -10.217 -10.217 -10.216 -10.216 -10.216
-10.216 -10.216 -10.216 -10.216 -10.216 -10.215 -10.215 -10.215
-10.214 -10.214 -10.214 -10.214 -10.214 -10.214 -10.214 -10.214
-10.213 -10.213 -10.213 -10.213 -10.213 -10.213 -10.213 -10.213
-10.212 -10.212 -10.212 -10.212 -10.212 -10.212 -10.212 -10.212
-10.211 -10.211 -10.211 -10.211 -10.211 -10.211 -10.211 -10.211
-10.211 -10.210 -10.210 -10.210 -10.210 -10.210 -10.210 -10.209
-10.209 -10.209 -10.209 -10.209 -10.209 -10.209 -10.209 -10.208
-10.208 -10.208 -10.208 -10.208 -10.208 -10.208 -10.208 -10.208
-10.208 -10.207 -10.207 -10.207 -10.207 -10.207 -10.207 -10.207
-10.207 -10.207 -10.206 -10.206 -10.206 -10.206 -10.206 -10.205
-10.205 -10.205 -10.205 -10.204 -10.204 -10.204 -10.203 -10.203
-10.203 -10.201 -10.200 -10.200 -10.200 -10.198 -10.198 -10.198
-10.197 -10.197 -10.196 -10.195 -10.195 -10.195 -10.194 -10.193
-10.190 -10.190 -10.188 -10.187  -1.097  -1.091  -1.020  -1.015
 -0.984  -0.978  -0.968  -0.963  -0.960  -0.960  -0.959  -0.956
 -0.932  -0.931  -0.928  -0.926  -0.925  -0.924  -0.920  -0.919
 -0.917  -0.916  -0.897  -0.895  -0.889  -0.885  -0.882  -0.880
 -0.876  -0.873  -0.858  -0.849  -0.844  -0.839  -0.839  -0.838
 -0.834  -0.832  -0.822  -0.815  -0.808  -0.801  -0.798  -0.797
 -0.796  -0.793  -0.791  -0.791  -0.790  -0.785  -0.784  -0.780
 -0.770  -0.769  -0.769  -0.767  -0.765  -0.762  -0.760  -0.758
 -0.752  -0.747  -0.744  -0.744  -0.732  -0.731  -0.718  -0.714
 -0.713  -0.712  -0.711  -0.711  -0.710  -0.708  -0.707  -0.706
 -0.704  -0.704  -0.702  -0.702  -0.701  -0.700  -0.674  -0.670
 -0.659  -0.658  -0.654  -0.651  -0.645  -0.643  -0.630  -0.629
 -0.626  -0.625  -0.621  -0.621  -0.620  -0.619  -0.617  -0.615
 -0.613  -0.612  -0.611  -0.611  -0.610  -0.609  -0.605  -0.605
 -0.603  -0.602  -0.602  -0.598  -0.564  -0.563  -0.562  -0.560
 -0.560  -0.557  -0.555  -0.554  -0.553  -0.553  -0.551  -0.550
 -0.536  -0.535  -0.530  -0.529  -0.528  -0.525  -0.524  -0.523
 -0.522  -0.519  -0.517  -0.516  -0.514  -0.511  -0.511  -0.508
 -0.505  -0.503  -0.503  -0.496  -0.495  -0.494  -0.486  -0.485
 -0.483  -0.480  -0.480  -0.478  -0.478  -0.477  -0.474  -0.473
 -0.472  -0.469  -0.468  -0.468  -0.467  -0.466  -0.465  -0.464
 -0.464  -0.463  -0.462  -0.461  -0.460  -0.458  -0.457  -0.456
 -0.455  -0.452  -0.451  -0.449  -0.448  -0.446  -0.443  -0.442
 -0.442  -0.439  -0.438  -0.436  -0.436  -0.433  -0.432  -0.430
 -0.429  -0.429  -0.428  -0.425  -0.425  -0.424  -0.422  -0.422
 -0.421  -0.420  -0.420  -0.419  -0.418  -0.418  -0.417  -0.417
 -0.416  -0.415  -0.414  -0.414  -0.413  -0.412  -0.411  -0.411
 -0.409  -0.407  -0.406  -0.405  -0.399  -0.398  -0.396  -0.393
 -0.393  -0.391  -0.389  -0.387  -0.386  -0.386  -0.382  -0.381
 -0.379  -0.378  -0.372  -0.371  -0.369  -0.366  -0.366  -0.364
 -0.363  -0.362  -0.360  -0.358  -0.358  -0.357  -0.356  -0.356
 -0.354  -0.353  -0.352  -0.351  -0.350  -0.348  -0.348  -0.348
 -0.346  -0.345  -0.345  -0.344  -0.343  -0.342  -0.341  -0.340
 -0.338  -0.338  -0.336  -0.335  -0.335  -0.334  -0.333  -0.332
 -0.331  -0.330  -0.329  -0.326  -0.323  -0.322  -0.320  -0.317
 -0.312  -0.307  -0.301  -0.294  -0.284  -0.281  -0.275  -0.272
 -0.269  -0.268  -0.266  -0.265  -0.264  -0.263  -0.263  -0.262
 -0.261  -0.258  -0.257  -0.256  -0.254  -0.252  -0.251  -0.250
 -0.247  -0.245  -0.242  -0.241  -0.219  -0.218  -0.212  -0.210
 -0.208  -0.207  -0.204  -0.200  -0.199  -0.194
 -- Virtual --
 -0.121  -0.119  -0.116  -0.113  -0.106  -0.103  -0.079  -0.073
 -0.072  -0.070  -0.057  -0.056  -0.055  -0.052  -0.022  -0.020
 -0.018  -0.016  -0.015  -0.015  -0.014  -0.013  -0.010  -0.009
 -0.008  -0.007  -0.005  -0.004  -0.003  -0.002   0.008   0.010
  0.011   0.017   0.036   0.037   0.043   0.044   0.048   0.049
  0.053   0.055   0.058   0.061   0.067   0.069   0.071   0.073
  0.074   0.080   0.083   0.084   0.087   0.090   0.093   0.094
  0.095   0.099   0.099   0.101   0.104   0.106   0.108   0.109
  0.110   0.113   0.113   0.115   0.117   0.119   0.119   0.122
  0.123   0.124   0.129   0.131   0.132   0.135   0.138   0.140
  0.142   0.148   0.148   0.149   0.152   0.153   0.156   0.157
  0.158   0.160   0.161   0.162   0.165   0.166   0.168   0.169
  0.171   0.173   0.174   0.176   0.178   0.179   0.181   0.185
  0.187   0.188   0.188   0.190   0.191   0.192   0.194   0.196
  0.198   0.201   0.203   0.204   0.206   0.207   0.208   0.210
  0.212   0.214   0.215   0.216   0.218   0.220   0.222   0.223
  0.225   0.226   0.227   0.229   0.230   0.232   0.232   0.235
  0.236   0.237   0.240   0.242   0.243   0.244   0.245   0.246
  0.248   0.249   0.252   0.257   0.259   0.262   0.265   0.267
  0.269   0.273   0.275   0.277   0.279   0.280   0.284   0.285
  0.288   0.290   0.290   0.295   0.299   0.301   0.304   0.307
  0.310   0.313   0.315   0.316   0.317   0.320   0.320   0.322
  0.324   0.326   0.328   0.329   0.330   0.331   0.333   0.338
  0.340   0.343   0.347   0.348   0.350   0.352   0.353   0.354
  0.358   0.361   0.365   0.372   0.375   0.379   0.386   0.395
  0.396   0.398   0.402   0.403   0.404   0.405   0.406   0.408
  0.411   0.413   0.415   0.418   0.419   0.420   0.422   0.424
  0.427   0.433   0.435   0.438   0.442   0.445   0.446   0.447
  0.450   0.453   0.454   0.455   0.458   0.459   0.461   0.464
  0.466   0.466   0.467   0.470   0.473   0.474   0.475   0.476
  0.477   0.479   0.481   0.482   0.483   0.485   0.486   0.489
  0.490   0.490   0.492   0.492   0.494   0.495   0.496   0.498
  0.499   0.499   0.500   0.501   0.502   0.503   0.503   0.506
  0.508   0.509   0.509   0.511   0.511   0.512   0.514   0.515
  0.515   0.515   0.516   0.517   0.519   0.520   0.523   0.524
  0.524   0.525   0.526   0.527   0.527   0.528   0.528   0.529
  0.530   0.532   0.532   0.533   0.533   0.534   0.535   0.535
  0.537   0.537   0.538   0.540   0.540   0.541   0.542   0.542
  0.543   0.544   0.545   0.546   0.546   0.547   0.548   0.548
  0.550   0.551   0.552   0.552   0.553   0.553   0.554   0.554
  0.555   0.555   0.557   0.558   0.558   0.559   0.561   0.562
  0.562   0.563   0.564   0.564   0.565   0.566   0.566   0.567
  0.568   0.569   0.570   0.571   0.572   0.573   0.574   0.575
  0.576   0.577   0.578   0.579   0.579   0.580   0.580   0.581
  0.582   0.582   0.584   0.584   0.586   0.586   0.587   0.588
  0.589   0.590   0.591   0.592   0.593   0.593   0.595   0.595
  0.596   0.597   0.598   0.598   0.599   0.601   0.601   0.602
  0.603   0.604   0.605   0.606   0.607   0.608   0.610   0.611
  0.612   0.614   0.614   0.616   0.616   0.618   0.618   0.619
  0.620   0.620   0.621   0.622   0.624   0.627   0.627   0.628
  0.628   0.629   0.632   0.633   0.633   0.634   0.636   0.637
  0.637   0.638   0.639   0.640   0.641   0.641   0.643   0.643
  0.646   0.646   0.648   0.649   0.651   0.651   0.652   0.653
  0.655   0.656   0.656   0.657   0.658   0.659   0.660   0.661
  0.662   0.663   0.664   0.664   0.666   0.666   0.667   0.668
  0.669   0.669   0.671   0.671   0.671   0.673   0.674   0.675
  0.675   0.676   0.677   0.678   0.678   0.680   0.681   0.682
  0.683   0.684   0.686   0.687   0.689   0.690   0.692   0.693
  0.693   0.694   0.696   0.696   0.698   0.700   0.701   0.702
  0.702   0.704   0.706   0.706   0.707   0.709   0.709   0.710
  0.710   0.712   0.714   0.715   0.717   0.717   0.720   0.721
  0.722   0.723   0.724   0.726   0.726   0.727   0.729   0.729
  0.731   0.731   0.734   0.735   0.737   0.737   0.739   0.740
  0.740   0.741   0.742   0.743   0.747   0.747   0.749   0.749
  0.751   0.754   0.755   0.757   0.758   0.759   0.760   0.761
  0.763   0.764   0.765   0.765   0.768   0.768   0.771   0.772
  0.774   0.776   0.777   0.778   0.779   0.779   0.780   0.782
  0.783   0.785   0.786   0.787   0.787   0.789   0.790   0.791
  0.792   0.794   0.794   0.796   0.797   0.799   0.800   0.801
  0.802   0.803   0.804   0.804   0.805   0.806   0.806   0.808
  0.809   0.810   0.811   0.811   0.812   0.813   0.814   0.815
  0.815   0.815   0.816   0.817   0.818   0.819   0.820   0.820
  0.821   0.823   0.823   0.825   0.825   0.826   0.828   0.829
  0.829   0.831   0.832   0.833   0.835   0.836   0.838   0.838
  0.840   0.843   0.846   0.848   0.849   0.849   0.852   0.853
  0.855   0.858   0.859   0.860   0.863   0.865   0.870   0.873
  0.874   0.876   0.879   0.882   0.889   0.893   0.895   0.896
  0.901   0.902   0.905   0.906   0.908   0.909   0.911   0.915
  0.919   0.920   0.922   0.923   0.925   0.926   0.927   0.929
  0.932   0.934   0.936   0.937   0.938   0.940   0.941   0.942
  0.943   0.945   0.946   0.948   0.950   0.951   0.954   0.958
  0.959   0.962   0.965   0.967   0.970   0.974   0.979   0.980
  0.983   0.983   0.988   0.989   0.990   0.992   0.995   0.997
  1.000   1.002   1.004   1.005   1.007   1.008   1.010   1.012
  1.014   1.015   1.019   1.019   1.020   1.021   1.023   1.023
  1.026   1.027   1.029   1.032   1.033   1.036   1.036   1.039
  1.039   1.041   1.042   1.044   1.047   1.048   1.052   1.054
  1.054   1.057   1.058   1.060   1.060   1.061   1.064   1.066
  1.067   1.069   1.071   1.071   1.073   1.074   1.075   1.076
  1.077   1.079   1.080   1.083   1.084   1.087   1.089   1.091
  1.093   1.094   1.096   1.097   1.098   1.100   1.101   1.104
  1.105   1.107   1.108   1.111   1.114   1.116   1.117   1.122
  1.124   1.125   1.127   1.128   1.130   1.132   1.135   1.138
  1.141   1.142   1.144   1.145   1.147   1.149   1.150   1.151
  1.155   1.157   1.158   1.160   1.161   1.163   1.165   1.166
  1.169   1.171   1.172   1.173   1.175   1.176   1.179   1.182
  1.183   1.184   1.187   1.188   1.190   1.191   1.192   1.195
  1.198   1.199   1.201   1.201   1.202   1.207   1.210   1.211
  1.214   1.215   1.216   1.220   1.225   1.227   1.230   1.231
  1.231   1.234   1.236   1.238   1.238   1.243   1.247   1.252
  1.254   1.257   1.259   1.259   1.262   1.264   1.267   1.267
  1.270   1.272   1.272   1.276   1.277   1.279   1.280   1.280
  1.282   1.285   1.287   1.289   1.290   1.293   1.296   1.299
  1.302   1.303   1.306   1.308   1.309   1.314   1.315   1.317
  1.321   1.321   1.324   1.326   1.329   1.331   1.332   1.336
  1.338   1.343   1.344   1.348   1.349   1.351   1.352   1.353
  1.354   1.356   1.358   1.360   1.363   1.368   1.368   1.371
  1.376   1.380   1.383   1.384   1.387   1.388   1.392   1.394
  1.396   1.399   1.401   1.403   1.405   1.408   1.409   1.413
  1.413   1.419   1.420   1.421   1.425   1.427   1.430   1.436
  1.439   1.442   1.444   1.447   1.449   1.454   1.455   1.457
  1.460   1.460   1.462   1.464   1.465   1.466   1.468   1.469
  1.471   1.474   1.474   1.476   1.477   1.479   1.481   1.483
  1.487   1.488   1.493   1.494   1.496   1.497   1.498   1.505
  1.506   1.507   1.512   1.514   1.516   1.521   1.522   1.525
  1.527   1.530   1.532   1.534   1.536   1.538   1.540   1.541
  1.544   1.546   1.549   1.551   1.558   1.559   1.561   1.564
  1.566   1.567   1.571   1.572   1.573   1.574   1.578   1.579
  1.582   1.584   1.587   1.589   1.594   1.596   1.600   1.603
  1.607   1.611   1.612   1.613   1.615   1.620   1.622   1.627
  1.630   1.636   1.636   1.638   1.641   1.647   1.649   1.653
  1.658   1.659   1.662   1.665   1.670   1.671   1.673   1.675
  1.683   1.688   1.689   1.693   1.697   1.700   1.702   1.704
  1.707   1.708   1.709   1.713   1.716   1.719   1.721   1.723
  1.726   1.727   1.731   1.732   1.734   1.736   1.739   1.741
  1.742   1.743   1.744   1.747   1.748   1.749   1.750   1.753
  1.753   1.755   1.756   1.760   1.760   1.763   1.765   1.766
  1.766   1.767   1.768   1.770   1.770   1.772   1.774   1.775
  1.776   1.778   1.779   1.781   1.782   1.783   1.784   1.785
  1.786   1.787   1.788   1.790   1.791   1.792   1.794   1.794
  1.795   1.797   1.799   1.800   1.800   1.802   1.803   1.804
  1.805   1.807   1.808   1.809   1.810   1.812   1.813   1.816
  1.817   1.819   1.820   1.823   1.825   1.826   1.827   1.827
  1.832   1.833   1.838   1.839   1.842   1.844   1.845   1.846
  1.850   1.853   1.854   1.857   1.859   1.860   1.863   1.865
  1.865   1.867   1.868   1.869   1.870   1.872   1.873   1.878
  1.880   1.882   1.884   1.887   1.888   1.890   1.893   1.895
  1.895   1.898   1.899   1.901   1.906   1.906   1.910   1.912
  1.915   1.919   1.922   1.925   1.926   1.929   1.930   1.931
  1.935   1.935   1.936   1.937   1.940   1.942   1.942   1.945
  1.945   1.950   1.951   1.952   1.953   1.956   1.959   1.961
  1.962   1.965   1.967   1.968   1.969   1.973   1.974   1.976
  1.977   1.979   1.980   1.981   1.984   1.987   1.988   1.988
  1.990   1.991   1.993   1.994   1.995   1.996   1.997   2.000
  2.000   2.001   2.003   2.004   2.006   2.007   2.008   2.010
  2.012   2.014   2.016   2.018   2.018   2.020   2.021   2.022
  2.023   2.024   2.026   2.026   2.027   2.028   2.029   2.030
  2.031   2.033   2.034   2.034   2.036   2.040   2.040   2.041
  2.043   2.044   2.044   2.046   2.048   2.048   2.049   2.051
  2.052   2.052   2.054   2.055   2.056   2.059   2.059   2.060
  2.062   2.063   2.064   2.064   2.067   2.067   2.069   2.070
  2.071   2.073   2.074   2.075   2.076   2.079   2.080   2.081
  2.082   2.084   2.086   2.088   2.091   2.091   2.094   2.095
  2.096   2.098   2.100   2.103   2.105   2.106   2.109   2.110
  2.114   2.117   2.121   2.121   2.122   2.125   2.130   2.131
  2.132   2.135   2.139   2.139   2.142   2.144   2.148   2.150
  2.150   2.156   2.158   2.161   2.164   2.166   2.174   2.177
  2.184   2.192   2.197   2.198   2.203   2.205   2.207   2.209
  2.212   2.218   2.221   2.225   2.226   2.228   2.229   2.231
  2.235   2.235   2.239   2.240   2.241   2.250   2.253   2.256
  2.257   2.258   2.259   2.260   2.262   2.268   2.272   2.273
  2.275   2.278   2.280   2.281   2.282   2.285   2.286   2.289
  2.291   2.293   2.295   2.299   2.301   2.302   2.304   2.305
  2.309   2.314   2.316   2.316   2.318   2.322   2.322   2.324
  2.326   2.329   2.331   2.332   2.334   2.337   2.342   2.344
  2.346   2.348   2.350   2.352   2.354   2.356   2.361   2.362
  2.363   2.364   2.366   2.368   2.373   2.375   2.375   2.376
  2.378   2.381   2.382   2.385   2.386   2.387   2.388   2.390
  2.392   2.393   2.394   2.395   2.397   2.399   2.401   2.401
  2.405   2.406   2.407   2.409   2.411   2.412   2.414   2.414
  2.417   2.420   2.422   2.423   2.424   2.426   2.427   2.429
  2.433   2.435   2.438   2.442   2.444   2.445   2.447   2.449
  2.451   2.453   2.455   2.456   2.457   2.460   2.464   2.468
  2.469   2.470   2.472   2.472   2.475   2.477   2.479   2.481
  2.482   2.485   2.486   2.487   2.488   2.492   2.492   2.493
  2.495   2.497   2.500   2.502   2.504   2.505   2.507   2.509
  2.511   2.511   2.515   2.516   2.518   2.519   2.525   2.528
  2.530   2.531   2.532   2.533   2.538   2.539   2.545   2.547
  2.550   2.552   2.555   2.556   2.563   2.566   2.568   2.577
  2.577   2.580   2.582   2.583   2.587   2.589   2.593   2.595
  2.595   2.598   2.599   2.600   2.602   2.605   2.606   2.609
  2.611   2.612   2.614   2.616   2.618   2.620   2.622   2.623
  2.627   2.630   2.633   2.634   2.635   2.636   2.639   2.641
  2.643   2.645   2.646   2.648   2.649   2.650   2.652   2.653
  2.655   2.656   2.657   2.661   2.662   2.664   2.665   2.667
  2.668   2.669   2.672   2.673   2.675   2.676   2.679   2.680
  2.683   2.684   2.685   2.687   2.690   2.693   2.694   2.695
  2.698   2.700   2.702   2.704   2.708   2.711   2.713   2.717
  2.718   2.720   2.723   2.725   2.726   2.730   2.731   2.732
  2.734   2.738   2.739   2.740   2.743   2.746   2.748   2.749
  2.753   2.754   2.759   2.761   2.762   2.764   2.765   2.767
  2.769   2.770   2.772   2.774   2.776   2.779   2.781   2.783
  2.786   2.789   2.791   2.792   2.793   2.795   2.799   2.804
  2.804   2.807   2.810   2.816   2.817   2.819   2.824   2.824
  2.826   2.829   2.830   2.834   2.836   2.838   2.840   2.843
  2.853   2.854   2.857   2.857   2.861   2.862   2.864   2.865
  2.867   2.868   2.871   2.875   2.875   2.877   2.878   2.883
  2.885   2.887   2.889   2.890   2.893   2.895   2.896   2.898
  2.901   2.903   2.905   2.906   2.908   2.909   2.911   2.912
  2.913   2.915   2.916   2.919   2.921   2.922   2.923   2.927
  2.929   2.930   2.931   2.934   2.937   2.938   2.939   2.940
  2.941   2.944   2.946   2.951   2.954   2.958   2.959   2.962
  2.967   2.969   2.973   2.976   2.978   2.980   2.985   2.988
  2.990   2.992   2.996   2.997   2.998   3.003   3.006   3.009
  3.013   3.015   3.017   3.017   3.020   3.023   3.028   3.029
  3.032   3.033   3.035   3.040   3.044   3.046   3.048   3.050
  3.052   3.056   3.057   3.061   3.064   3.067   3.068   3.073
  3.074   3.079   3.080   3.085   3.088   3.094   3.105   3.109
  3.115   3.131   3.136   3.143   3.145   3.150   3.158   3.163
  3.164   3.166   3.170   3.171   3.174   3.188   3.191   3.194
  3.204   3.206   3.208   3.208   3.231   3.237   3.243   3.251
  3.254   3.264   3.270   3.272   3.280   3.289   3.293   3.298
  3.305   3.313   3.314   3.320   3.321   3.328   3.331   3.336
  3.342   3.347   3.349   3.352   3.361   3.366   3.379   3.388
  3.393   3.408   3.413   3.425   3.435   3.437   3.438   3.447
  3.454   3.457   3.475   3.475   3.480   3.483   3.488   3.491
  3.496   3.499   3.516   3.522   3.528   3.531   3.534   3.547
  3.555   3.557   3.559   3.563   3.583   3.590   3.597   3.599
  3.603   3.621   3.675   3.707   3.857   3.867   4.024   4.043
  4.070   4.085   4.085   4.093   4.098   4.099   4.103   4.105
  4.108   4.112   4.116   4.117   4.120   4.125   4.127   4.128
  4.132   4.138   4.141   4.148   4.148   4.155   4.155   4.158
  4.163   4.172   4.177   4.180   4.181   4.185   4.190   4.195
  4.201   4.207   4.212   4.223   4.224   4.238   4.241   4.244
  4.248   4.251   4.253   4.256   4.259   4.266   4.270   4.271
  4.276   4.280   4.288   4.296   4.303   4.304   4.307   4.311
  4.316   4.335   4.341   4.373   4.389   4.395   4.399   4.399
  4.403   4.405   4.405   4.410   4.414   4.416   4.422   4.423
  4.427   4.431   4.434   4.437   4.447   4.456   4.471   4.481
  4.488   4.498   4.502   4.521   4.539   4.546   4.557   4.562
  4.568   4.569   4.618   4.625   4.631   4.638   4.645   4.653
  4.658   4.671   4.690   4.696   4.697   4.702   4.706   4.712
  4.715   4.719   4.721   4.726   4.751   4.784   4.829   4.840
  4.860   4.865   4.866   4.879   4.880   4.883   4.902   4.904
  4.908   4.923   4.954   4.968   4.970   4.974   4.979   4.985
  4.995   5.013   5.015   5.021   5.166   5.178   5.185   5.190
  5.199   5.202   5.215   5.225   5.306   5.315   5.337   5.346
  5.367   5.377
 --------------------------------------------------------------
 
          Ground-State Mulliken Net Atomic Charges

     Atom                 Charge (a.u.)
  ----------------------------------------
      1 O                    -0.485317
      2 C                    -0.087484
      3 H                     0.123864
      4 H                     0.139327
      5 H                     0.119905
      6 O                    -0.464214
      7 C                     0.607851
      8 C                    -0.264387
      9 H                     0.137434
     10 H                     0.123282
     11 C                    -0.168814
     12 H                     0.113033
     13 H                     0.123475
     14 C                    -0.179691
     15 H                     0.099363
     16 H                     0.101835
     17 C                     0.002124
     18 C                     0.125497
     19 C                    -0.103908
     20 H                     0.088174
     21 C                    -0.088034
     22 H                     0.089120
     23 C                    -0.094927
     24 H                     0.088028
     25 C                    -0.088932
     26 H                     0.099795
     27 C                    -0.137151
     28 H                     0.092466
     29 C                    -0.025495
     30 C                    -0.048034
     31 C                    -0.011852
     32 C                     0.006044
     33 C                     0.015320
     34 C                     0.029111
     35 C                     0.011398
     36 C                     0.012492
     37 C                     0.035680
     38 C                    -0.017270
     39 C                    -0.087523
     40 C                     0.033112
     41 C                    -0.012982
     42 C                    -0.011307
     43 C                     0.037948
     44 C                    -0.016280
     45 C                    -0.061407
     46 C                    -0.006929
     47 C                    -0.000177
     48 C                     0.020691
     49 C                    -0.022790
     50 C                     0.004138
     51 C                    -0.017848
     52 C                     0.018317
     53 C                     0.006842
     54 C                    -0.010654
     55 C                     0.004671
     56 C                     0.006922
     57 C                    -0.041788
     58 C                     0.003387
     59 C                    -0.003990
     60 C                    -0.028056
     61 C                    -0.023042
     62 C                    -0.012708
     63 C                    -0.029056
     64 C                     0.012142
     65 C                    -0.027560
     66 C                    -0.004478
     67 C                    -0.009229
     68 C                     0.046534
     69 C                    -0.017318
     70 C                    -0.017831
     71 C                     0.021785
     72 C                     0.008281
     73 C                     0.016927
     74 C                    -0.013863
     75 C                    -0.007464
     76 C                     0.044723
     77 C                     0.006017
     78 C                    -0.021320
     79 C                     0.000714
     80 C                     0.030364
     81 C                     0.034725
     82 C                     0.022492
     83 C                     0.019689
     84 C                     0.016382
     85 C                    -0.009620
     86 C                     0.012847
     87 C                    -0.015328
     88 C                    -0.024707
     89 O                    -0.471322
     90 C                    -0.090936
     91 H                     0.129477
     92 H                     0.133315
     93 H                     0.134866
     94 O                    -0.473181
     95 C                     0.603995
     96 C                    -0.266761
     97 H                     0.142686
     98 H                     0.125774
     99 C                    -0.169157
    100 H                     0.134202
    101 H                     0.102025
    102 C                    -0.196273
    103 H                     0.101687
    104 H                     0.105345
    105 C                     0.016505
    106 C                     0.086397
    107 C                    -0.106307
    108 H                     0.129108
    109 C                    -0.108682
    110 H                     0.090326
    111 C                    -0.087302
    112 H                     0.095274
    113 C                    -0.096215
    114 H                     0.087810
    115 C                    -0.103217
    116 H                     0.087839
    117 C                    -0.001146
    118 C                    -0.016149
    119 C                     0.041668
    120 C                    -0.023997
    121 C                     0.003250
    122 C                     0.023239
    123 C                     0.008948
    124 C                    -0.002726
    125 C                     0.034293
    126 C                    -0.015562
    127 C                    -0.091770
    128 C                     0.007812
    129 C                    -0.031215
    130 C                     0.019119
    131 C                     0.001703
    132 C                    -0.005886
    133 C                    -0.056118
    134 C                     0.004177
    135 C                     0.003704
    136 C                    -0.021210
    137 C                    -0.004594
    138 C                     0.000730
    139 C                    -0.000286
    140 C                     0.033722
    141 C                     0.022396
    142 C                    -0.008394
    143 C                     0.036546
    144 C                    -0.013839
    145 C                    -0.007893
    146 C                    -0.024244
    147 C                    -0.012077
    148 C                    -0.016069
    149 C                     0.034107
    150 C                    -0.022675
    151 C                     0.017868
    152 C                     0.015720
    153 C                    -0.025165
    154 C                    -0.024583
    155 C                    -0.021118
    156 C                     0.012702
    157 C                     0.022895
    158 C                     0.005761
    159 C                    -0.004576
    160 C                     0.012986
    161 C                    -0.005154
    162 C                    -0.011477
    163 C                    -0.021117
    164 C                    -0.017550
    165 C                     0.010774
    166 C                    -0.005461
    167 C                    -0.002785
    168 C                     0.022283
    169 C                     0.016837
    170 C                    -0.011087
    171 C                     0.001933
    172 C                     0.006716
    173 C                     0.012923
    174 C                    -0.026058
    175 C                    -0.021532
    176 C                     0.007921
  ----------------------------------------
  Sum of atomic charges =     0.000000

 -----------------------------------------------------------------
                    Cartesian Multipole Moments
 -----------------------------------------------------------------
    Charge (ESU x 10^10)
                 0.0000
    Dipole Moment (Debye)
         X      -2.2874      Y       0.5558      Z      -2.0455
       Tot       3.1186
    Quadrupole Moments (Debye-Ang)
        XX    -790.1985     XY     -33.9755     YY    -779.4897
        XZ       4.7101     YZ      11.7964     ZZ    -792.0015
    Octopole Moments (Debye-Ang^2)
       XXX    -409.6620    XXY      23.6490    XYY    -170.9025
       YYY     -92.1938    XXZ     -45.7561    XYZ     -75.5327
       YYZ     -37.1112    XZZ    -164.5117    YZZ      -1.3590
       ZZZ     -47.1323
    Hexadecapole Moments (Debye-Ang^3)
      XXXX -143761.1372   XXXY   -3035.4044   XXYY  -29897.4678
      XYYY   -1918.4082   YYYY  -41550.0271   XXXZ     491.7661
      XXYZ     622.5268   XYYZ    -200.3362   YYYZ     903.9383
      XXZZ  -26861.4292   XYZZ    -905.2027   YYZZ  -10551.0990
      XZZZ     285.6153   YZZZ     368.8130   ZZZZ  -22312.7791
 -----------------------------------------------------------------
Archival summary:
1\1\mn251\SP\ProcedureUnspecified\6-31G**\428\afmv_a\FriOct1207:04:192018FriOct1207:04:192018\0\\#,ProcedureUnspecified,6-31G**,\\0,1\O\C,1,1.19468\O,2,1.37742,1,124.426\C,3,1.43832,2,120.562,1,-10.0243,0\H,4,1.09706,3,108.237,2,91.8162,0\H,4,1.09743,3,106.417,2,-160.084,0\H,4,1.09761,3,114.754,2,-30.4635,0\C,2,1.4912,1,121.813,3,170.514,0\H,8,1.09694,2,99.3023,1,-148.116,0\H,8,1.0975,2,105.691,1,89.2252,0\C,8,1.5184,2,118.152,1,-26.1896,0\H,11,1.09706,8,107.309,2,82.3546,0\H,11,1.09731,8,109.743,2,-37.5937,0\C,11,1.48165,8,110.441,2,-168.019,0\H,14,1.09652,11,114.046,8,58.8194,0\H,14,1.0968,11,112.945,8,-49.7559,0\C,14,1.51642,11,113.512,8,-173.193,0\C,17,1.49993,14,120.46,11,150.331,0\C,18,1.48286,17,126.09,14,148.355,0\C,19,1.3917,18,117.891,17,70.3709,0\C,20,1.32231,19,119.117,18,145.891,0\C,21,1.41656,20,124.652,19,-2.44837,0\C,22,1.40857,21,117.876,20,-2.5928,0\C,23,1.40489,22,110.577,21,-139.005,0\C,24,1.39629,23,120.63,22,138.953,0\C,25,1.38076,24,122.197,23,-138.886,0\C,26,1.37617,25,111.341,24,144.51,0\C,26,1.38028,25,118.532,24,0.837572,0\C,27,1.38713,26,122.37,25,-140.345,0\C,29,1.38742,27,119.406,26,-0.429416,0\C,27,1.39171,26,105.857,25,0.653033,0\C,31,1.35625,27,121.812,26,-138.221,0\C,32,1.39149,31,119.586,27,-3.98827,0\C,33,1.36398,32,120.175,31,2.31874,0\C,33,1.39117,32,106.698,31,145.422,0\C,30,1.39494,29,106.749,27,138.702,0\C,36,1.35686,30,111.112,29,6.95922,0\C,30,1.39779,29,118.416,27,-1.11983,0\C,28,1.40056,26,120.95,25,1.1258,0\C,39,1.39206,28,119.996,26,-0.511931,0\C,40,1.3828,39,121.045,28,135.543,0\C,41,1.34526,40,121.406,39,-0.61642,0\C,42,1.38407,41,124.534,40,-142.152,0\C,36,1.40462,30,123.759,29,-146.118,0\C,44,1.35582,36,121.767,30,144.825,0\C,45,1.39302,44,123.789,36,0.757585,0\C,35,1.40591,33,119.729,32,-146.528,0\C,47,1.39447,35,118.526,33,142.784,0\C,48,1.39405,47,121.113,35,-0.174524,0\C,49,1.39949,48,120.024,47,-134.936,0\C,50,1.37716,49,123.352,48,-5.15424,0\C,50,1.39712,49,107.459,48,149.031,0\C,52,1.37234,50,114.633,49,-135.184,0\C,53,1.37549,52,121.693,50,-15.5214,0\C,54,1.38275,53,106.594,52,153.427,0\C,48,1.40982,47,108.305,35,-144.081,0\C,35,1.41118,33,110.491,32,-0.0598272,0\C,57,1.37009,35,106.106,33,2.20692,0\C,58,1.39703,57,122.61,35,-150.697,0\C,59,1.3869,58,117.454,57,130.714,0\C,60,1.38154,59,109.508,58,-130.24,0\C,60,1.40628,59,120.485,58,14.7693,0\C,54,1.41276,53,123.155,52,5.93236,0\C,63,1.38647,54,119.423,53,132.05,0\C,64,1.38173,63,109.512,54,-136.82,0\C,38,1.4131,30,120.097,29,139.81,0\C,66,1.36521,38,110.303,30,-143.988,0\C,46,1.41421,45,112.12,44,-1.30624,0\C,56,1.41501,48,117.629,47,140.285,0\C,42,1.41834,41,122.19,40,3.6808,0\C,70,1.36629,42,109.851,41,-146.052,0\C,71,1.35869,70,120.887,42,135.916,0\C,71,1.41518,70,108.422,42,-4.39119,0\C,66,1.42186,38,116.355,30,-3.58688,0\C,49,1.43019,48,122.304,47,8.85796,0\C,45,1.44139,44,105.664,36,-140.253,0\C,75,1.45517,49,110.611,48,-148.573,0\C,17,1.55055,14,110.949,11,-61.0028,0\C,78,1.35865,17,119.801,14,-78.5838,0\H,79,1.08568,78,117.177,17,3.509,0\C,79,1.36698,78,120.71,17,-169.358,0\H,81,1.08633,79,114.029,78,174.892,0\C,78,1.37129,17,121.017,14,109.274,0\H,83,1.08573,78,124.676,17,-18.1126,0\C,83,1.41288,78,124.631,17,172.223,0\H,85,1.08622,83,124.975,78,178.775,0\C,85,1.40245,83,113.942,78,-8.87788,0\H,87,1.08602,85,113.396,83,-162.577,0\C,10,2.82004,8,120.974,2,-29.6456,0\C,89,1.40332,10,85.6147,8,117.057,0\C,90,1.39541,89,120.519,10,78.4165,0\C,91,1.39654,90,106.529,89,134.838,0\C,92,1.3827,91,122.13,90,-143.317,0\C,93,1.34416,92,121.873,91,2.04081,0\C,94,1.40591,93,110.052,92,147.486,0\C,95,1.38961,94,117.426,93,-130.561,0\C,96,1.39357,95,120.771,94,130.154,0\C,97,1.396,96,106.349,95,-150.407,0\C,98,1.34694,97,108.51,96,4.59957,0\C,99,1.36952,98,110.555,97,-7.54817,0\C,100,1.39954,99,116.772,98,142.337,0\C,101,1.40789,100,120.627,99,2.71418,0\C,92,1.41094,91,109.176,90,6.41212,0\C,103,1.379,92,118.447,91,-149.998,0\C,104,1.39634,103,120.568,92,-1.43024,0\C,105,1.40235,104,122.128,103,-3.62617,0\C,103,1.41279,92,107.62,91,-4.40842,0\C,107,1.41521,103,117.854,92,-140.833,0\C,108,1.3999,107,121.494,103,138.501,0\C,109,1.41471,108,115.95,107,-3.7451,0\C,110,1.40625,109,119.178,108,-136.954,0\C,111,1.40808,110,119.705,109,0.759139,0\C,111,1.40844,110,108.661,109,143.892,0\C,113,1.39776,111,110.268,110,1.29305,0\C,114,1.39198,113,124.677,111,-142.445,0\C,115,1.40243,114,123.96,113,138.111,0\C,116,1.37766,115,108.107,114,-138.582,0\C,112,1.41971,111,122.157,110,-0.880378,0\C,118,1.36633,112,106.389,111,137.291,0\C,119,1.39461,118,124.613,112,-138.137,0\C,120,1.36077,119,125.029,118,143.627,0\C,120,1.41926,119,116.727,118,0.944575,0\C,122,1.40078,120,109.268,119,146.283,0\C,123,1.37435,122,120.478,120,-137.417,0\C,124,1.38,123,120.252,122,-8.43197,0\C,123,1.38111,122,105.088,120,0.839914,0\C,122,1.41289,120,120.969,119,-1.03385,0\C,127,1.38521,122,118.663,120,3.95948,0\C,127,1.4086,122,117.488,120,136.287,0\C,124,1.41592,123,121.256,122,135.643,0\C,130,1.39599,124,121.157,123,5.68812,0\C,131,1.40572,130,116.12,124,-12.9755,0\C,132,1.40392,131,109.376,130,-133.657,0\C,133,1.377,132,121.747,131,148.853,0\C,134,1.41009,133,120.784,132,-1.25714,0\C,135,1.36823,134,108.444,133,-137.627,0\C,136,1.37646,135,109.179,134,-2.58154,0\C,137,1.3784,136,108.302,135,2.827,0\C,137,1.38597,136,120.562,135,148.164,0\C,139,1.41333,137,118.92,136,-1.21056,0\C,140,1.41199,139,105.322,137,-143.505,0\C,141,1.41472,140,106.667,139,3.4337,0\C,142,1.32589,141,112.672,140,-3.17068,0\C,140,1.41601,139,123.895,137,3.12755,0\C,144,1.40183,140,115.829,139,-2.74222,0\C,97,1.43158,96,125.591,95,3.00979,0\C,146,1.49381,97,119.516,96,1.58038,0\C,147,1.46089,146,128.457,97,67.0038,0\C,148,1.49206,147,119.683,146,148.1,0\C,149,1.39429,148,120.546,147,-45.0769,0\H,150,1.08546,149,117.12,148,-5.8235,0\C,150,1.36964,149,119.778,148,178.973,0\H,152,1.08615,150,121.88,149,175.101,0\C,149,1.40618,148,119.381,147,132.864,0\H,154,1.08581,149,121.624,148,5.72215,0\C,154,1.421,149,120.161,148,-174.932,0\H,156,1.08586,154,116.747,149,-177.102,0\C,156,1.42263,154,119.871,149,-7.3869,0\H,158,1.08575,156,116.248,154,176.688,0\C,106,1.49681,105,121.328,104,146.757,0\C,148,1.53587,147,116.095,146,10.429,0\H,161,1.09656,148,114.097,147,-58.9012,0\H,161,1.09781,148,101.871,147,-162.303,0\C,161,1.53783,148,117.233,147,78.4894,0\H,164,1.09673,161,114.259,148,23.2109,0\H,164,1.09773,161,105.818,148,146.142,0\C,164,1.56154,161,109.739,148,-106.007,0\H,167,1.09669,164,110.671,161,-2.93558,0\H,167,1.09679,164,113.098,161,-129.327,0\C,167,1.53461,164,112.412,161,111.571,0\O,170,1.20548,167,123.25,164,-9.88728,0\O,170,1.35238,167,109.666,164,174.886,0\C,172,1.45839,170,121.937,167,-166.876,0\H,173,1.09592,172,109.595,170,57.1257,0\H,173,1.09689,172,114.805,170,-173.218,0\H,173,1.09711,172,105.671,170,-59.9202,0\\\@

 Total job time:  892.83s(wall), 8489.42s(cpu) 
 Fri Oct 12 07:04:19 2018

        *************************************************************
        *                                                           *
        *  Thank you very much for using Q-Chem.  Have a nice day.  *
        *                                                           *
        *************************************************************


