
Running Job 1 of 1 ./7/25.qcin
qchem ./7/25.qcin_28222.0 /tmpu/cab_g/afmv_a/scratch_qchem/qchem28222/ 1
/tmpu/appuserlic/qchem4.4/serial-multicore/exe/qcprog.exe_s ./7/25.qcin_28222.0 /tmpu/cab_g/afmv_a/scratch_qchem/qchem28222/
Check license passed

                  Welcome to Q-Chem
     A Quantum Leap Into The Future Of Chemistry


 Q-Chem 4.4, Q-Chem, Inc., Pleasanton, CA (2016)

 Y. Shao,  Z. Gan,  E. Epifanovsky,  A. T. B. Gilbert,  M. Wormit,  
 J. Kussmann,  A. W. Lange,  A. Behn,  J. Deng,  X. Feng,  D. Ghosh,  
 M. Goldey,  P. R. Horn,  L. D. Jacobson,  I. Kaliman,  F. Rob,  
 R. Z. Khaliullin,  T. Kus,  A. Landau,  J. Liu,  E. I. Proynov,  Y. M. Rhee,  
 R. M. Richard,  M. A. Rohrdanz,  R. P. Steele,  E. J. Sundstrom,  
 H. L. Woodcock III,  P. M. Zimmerman,  D. Zuev,  B. Albrecht,  E. Alguire,  
 B. Austin,  S. A. Baeppler,  G. J. O. Beran,  Y. A. Bernard,  E. Berquist,  
 K. Brandhorst,  K. B. Bravaya,  S. T. Brown,  D. Casanova,  C.-M. Chang,  
 Y. Chen,  S. H. Chien,  K. D. Closser,  M. P. Coons,  D. L. Crittenden,  
 S. Dasgupta,  M. Diedenhofen,  R. A. DiStasio Jr.,  H. Do,  A. D. Dutoi,  
 R. G. Edgar,  P.-T. Fang,  S. Fatehi,  Q. Feng,  L. Fusti-Molnar,  
 A. Ghysels,  A. Golubeva-Zadorozhnaya,  J. Gomes,  A. Gunina,  
 M. W. D. Hanson-Heine,  P. H. P. Harbach,  A. W. Hauser,  J. E. Herr,  
 E. G. Hohenstein,  Z. C. Holden,  K. Hui,  T.-C. Jagau,  H. Ji,  B. Kaduk,  
 K. Khistyaev,  Jaehoon Kim,  Jihan Kim,  R. A. King,  P. Klunzinger,  
 K. Koh,  D. Kosenkov,  T. Kowalczyk,  C. M. Krauter,  A. Kunitsa,  
 K. U. Lao,  A. Laurent,  K. V. Lawler,  J. Lee,  D. Lefrancois,  S. Lehtola,  
 S. V. Levchenko,  C. Y. Lin,  Y.-S. Lin,  F. Liu,  E. Livshits,  
 R. C. Lochan,  A. Luenser,  P. Manohar,  S. F. Manzer,  S.-P. Mao,  Y. Mao,  
 N. Mardirossian,  A. V. Marenich,  L. A. Martinez-Martinez,  S. A. Maurer,  
 N. J. Mayhall,  J.-M. Mewes,  A. F. Morrison,  K. Nanda,  T. S. Nguyen-Beck,  
 C. M. Oana,  R. Olivares-Amaya,  D. P. O'Neill,  J. A. Parkhill,  
 T. M. Perrine,  R. Peverati,  P. A. Pieniazek,  F. Plasser,  A. Prociuk,  
 D. R. Rehn,  E. Rosta,  N. J. Russ,  N. Sergueev,  S. M. Sharada,  
 S. Sharma,  D. W. Small,  A. Sodt,  T. Stauch,  T. Stein,  D. Stuck,  
 Y.-C. Su,  A. J. W. Thom,  T. Tsuchimochi,  L. Vogt,  O. Vydrov,  T. Wang,  
 M. A. Watson,  J. Wenzel,  A. White,  C. F. Williams,  V. Vanovschi,  
 K. Yao,  S. Yeganeh,  S. R. Yost,  Z.-Q. You,  I. Y. Zhang,  X. Zhang,  
 Y. Zhao,  B. R. Brooks,  G. K. L. Chan,  D. M. Chipman,  C. J. Cramer,  
 W. A. Goddard III,  M. S. Gordon,  W. J. Hehre,  A. Klamt,  
 H. F. Schaefer III,  M. W. Schmidt,  C. D. Sherrill,  D. G. Truhlar,  
 A. Warshel,  X. Xu,  A. Aspuru-Guzik,  R. Baer,  A. T. Bell,  N. A. Besley,  
 J.-D. Chai,  A. Dreuw,  B. D. Dunietz,  T. R. Furlani,  S. R. Gwaltney,  
 C.-P. Hsu,  Y. Jung,  J. Kong,  D. S. Lambrecht,  W. Liang,  C. Ochsenfeld,  
 V. A. Rassolov,  L. V. Slipchenko,  J. E. Subotnik,  T. Van Voorhis,  
 J. M. Herbert,  A. I. Krylov,  P. M. W. Gill,  M. Head-Gordon

 Contributors to earlier versions of Q-Chem not listed above: 
 R. D. Adamson,  J. Baker,  E. F. C. Byrd,  A. K. Chakraborty,  C.-L. Cheng,  
 H. Dachsel,  R. J. Doerksen,  G. Hawkins,  A. Heyden,  S. Hirata,  
 G. Kedziora,  F. J. Keil,  C. Kelley,  P. P. Korambath,  W. Kurlancheek,  
 A. M. Lee,  M. S. Lee,  D. Liotard,  I. Lotan,  P. E. Maslen,  N. Nair,  
 D. Neuhauser,  R. Olson,  B. Peters,  J. Ritchie,  N. E. Schultz,  
 N. Shenvi,  A. C. Simmonett,  K. S. Thanthiriwatte,  Q. Wu,  W. Zhang

 Please cite Q-Chem as follows:
 Y. Shao et al., Mol. Phys. 113, 184-215 (2015)
 DOI: 10.1080/00268976.2014.952696

 Q-Chem 4.4.2 for Intel X86 Linux

 Parts of Q-Chem use Armadillo 5.200.1 (Boston Tea Smuggler).
 http://arma.sourceforge.net/

 Q-Chem begins on Fri Oct 12 07:04:20 2018  

Host: 
0

     Scratch files written to /tmpu/cab_g/afmv_a/scratch_qchem/qchem28222//
 Dec716 11556_ 22328  22283 4050   
Processing $rem in /tmpu/appuserlic/qchem4.4/serial-multicore/config/preferences.
 MEM_TOTAL  2000 
FILE_GEOM_ORG=        593

Checking the input file for inconsistencies... 	...done.

--------------------------------------------------------------
User input:
--------------------------------------------------------------
$comment
SP
$end

$rem
MEM_STATIC 5000
MEM_TOTAL 20000
JOBTYPE SP
EXCHANGE B3LYP
BASIS 6-31g(d,p)
$end

$molecule
0 1
O         -22.661000     11.965000      5.695000
C         -23.991000     12.348000      5.225000
H         -24.525000     11.542000      4.708000
H         -23.917000     13.124000      4.453000
H         -24.621000     12.703000      6.050000
O         -21.735000     11.805000      3.647000
C         -21.662000     11.702000      4.877000
C         -20.511000     11.064000      5.606000
H         -21.119000     10.320000      6.136000
H         -19.967000     11.673000      6.339000
C         -19.577000     10.403000      4.569000
H         -20.132000      9.749000      3.885000
H         -18.980000     11.137000      4.012000
C         -18.699000      9.368000      5.292000
H         -18.007000      8.978000      4.535000
H         -17.930000      9.826000      5.925000
C         -19.414000      8.119000      5.990000
C         -20.425000      7.506000      5.083000
C         -21.830000      7.389000      5.284000
H         -22.217000      7.731000      6.240000
C         -22.699000      6.658000      4.397000
H         -23.727000      6.482000      4.702000
C         -22.128000      6.121000      3.232000
H         -22.633000      5.545000      2.463000
C         -20.766000      6.329000      2.997000
H         -20.363000      5.897000      2.086000
C         -19.959000      7.034000      3.835000
H         -18.920000      7.138000      3.538000
C         -21.463000      6.140000     10.759000
C         -20.623000      4.183000      9.588000
C         -17.054000      3.312000     12.124000
C         -17.607000      9.564000     10.969000
C         -14.797000      4.685000      9.933000
C         -21.280000      5.444000      9.562000
C         -15.212000      8.083000     11.118000
C         -19.333000      4.130000     12.721000
C         -17.639000      4.930000      7.053000
C         -16.873000      9.255000      9.794000
C         -18.601000      7.140000      6.748000
C         -16.574000      5.890000      7.117000
C         -15.479000      7.863000      8.732000
C         -14.550000      6.829000     11.107000
C         -19.969000      5.216000      7.732000
C         -15.402000      4.790000     12.167000
C         -19.510000      8.104000      7.511000
C         -18.852000      9.016000      8.482000
C         -15.220000      4.012000     11.059000
C         -18.255000      7.233000     13.519000
C         -17.340000      5.200000     13.603000
C         -18.763000      5.114000     13.503000
C         -20.462000      4.307000     12.009000
C         -19.543000      9.090000      9.661000
C         -18.875000      5.643000      6.926000
C         -20.310000      3.572000     10.830000
C         -15.708000      8.562000      9.886000
C         -19.892000      4.035000      8.422000
C         -15.522000      5.612000      7.961000
C         -19.465000      8.720000     12.047000
C         -18.504000      3.116000     12.098000
C         -17.076000      7.185000      7.043000
C         -20.488000      6.671000     12.736000
C         -14.875000      6.627000      8.724000
C         -17.580000      3.780000      7.844000
C         -15.903000      7.063000     12.964000
C         -15.937000      8.339000     12.304000
C         -16.460000      3.490000      8.624000
C         -19.009000      9.317000     10.906000
C         -17.476000      9.042000      8.557000
C         -18.301000      8.444000     12.814000
C         -20.615000      7.502000      8.392000
C         -18.289000      2.679000      9.665000
C         -16.593000      8.191000      7.888000
C         -15.391000      4.385000      8.685000
C         -20.550000      7.871000     12.008000
C         -16.266000      3.069000     10.984000
C         -21.002000      5.611000     11.984000
C         -16.498000      4.332000     12.904000
C         -18.704000      3.314000      8.505000
C         -16.915000      2.795000      9.752000
C         -20.855000      6.091000      8.437000
C         -20.668000      8.201000      9.626000
C         -17.049000      6.569000     13.606000
C         -19.105000      2.812000     10.865000
C         -14.466000      6.045000      9.933000
C         -17.165000      8.990000     12.175000
C         -15.049000      6.153000     12.223000
C         -21.125000      7.503000     10.779000
C         -19.339000      6.379000     13.562000
O          -9.246000     14.286000     10.883000
C         -10.355000     15.157000     11.255000
H          -9.977000     16.164000     11.465000
H         -11.012000     14.757000     12.037000
H         -11.006000     15.201000     10.373000
O          -8.647000     15.341000      8.942000
C          -8.428000     14.573000      9.845000
C          -7.187000     13.672000      9.901000
H          -7.601000     12.672000      9.724000
H          -6.798000     13.778000     10.921000
C          -6.137000     14.036000      8.804000
H          -6.275000     15.035000      8.373000
H          -5.207000     13.975000      9.384000
C          -6.058000     12.905000      7.765000
H          -5.008000     12.734000      7.494000
H          -6.257000     11.906000      8.171000
C          -6.700000     13.164000      6.394000
C          -6.026000     14.295000      5.692000
C          -6.531000     15.591000      5.789000
H          -7.364000     15.748000      6.467000
C          -5.912000     16.614000      5.121000
H          -6.228000     17.647000      5.234000
C          -4.759000     16.421000      4.298000
H          -4.307000     17.164000      3.648000
C          -4.308000     15.082000      4.132000
H          -3.411000     14.833000      3.573000
C          -4.898000     14.037000      4.893000
H          -4.448000     13.050000      4.845000
C         -11.570000     13.934000      3.948000
C         -10.270000     12.932000      2.213000
C         -12.338000      8.923000      2.209000
C         -11.443000     11.047000      8.112000
C          -9.845000      7.324000      4.176000
C         -10.355000     13.721000      3.342000
C         -11.209000      8.395000      7.350000
C         -13.307000     11.194000      2.387000
C          -7.489000     10.485000      3.801000
C         -10.154000     10.390000      8.133000
C          -7.278000     12.020000      5.617000
C          -7.362000      9.713000      4.894000
C          -8.812000      8.882000      7.179000
C         -11.182000      7.595000      6.293000
C          -8.297000     12.710000      3.409000
C         -12.293000      7.653000      4.110000
C          -8.154000     13.037000      6.331000
C          -9.084000     12.486000      7.362000
C         -11.054000      7.446000      3.497000
C         -14.114000     10.786000      5.795000
C         -13.938000      9.448000      3.966000
C         -14.098000     10.777000      3.493000
C         -12.674000     12.426000      2.370000
C         -10.417000     13.053000      7.255000
C          -7.443000     11.869000      4.137000
C         -11.431000     12.258000      1.729000
C         -10.043000      9.108000      7.735000
C          -9.000000     12.264000      2.288000
C          -8.007000      8.424000      4.867000
C         -12.761000     12.499000      6.989000
C         -12.479000     10.243000      1.720000
C          -7.346000     10.513000      6.050000
C         -13.435000     12.807000      4.683000
C          -8.767000      8.023000      6.075000
C          -8.164000     10.051000      2.675000
C         -13.206000      8.608000      6.158000
C         -12.489000      9.042000      7.296000
C          -8.718000      8.772000      2.588000
C         -11.547000     12.404000      7.700000
C          -9.034000     11.092000      7.684000
C         -13.338000     11.259000      6.950000
C          -9.168000     13.799000      5.483000
C         -10.044000     10.227000      1.399000
C          -8.194000     10.152000      7.090000
C          -8.647000      7.920000      3.756000
C         -12.816000     13.284000      5.797000
C         -11.080000      8.266000      2.323000
C         -12.703000     13.219000      3.539000
C         -13.081000      8.526000      3.335000
C          -8.933000     10.943000      1.898000
C          -9.912000      8.904000      1.878000
C          -9.167000     13.595000      4.102000
C         -10.430000     13.851000      6.100000
C         -14.056000      9.444000      5.394000
C         -11.293000     10.891000      1.355000
C          -9.935000      7.387000      5.613000
C         -12.561000     10.376000      7.665000
C         -12.382000      7.639000      5.545000
C         -11.641000     13.962000      5.327000
C         -14.096000     11.582000      4.597000
$end

--------------------------------------------------------------
 ----------------------------------------------------------------
             Standard Nuclear Orientation (Angstroms)
    I     Atom           X                Y                Z
 ----------------------------------------------------------------
    1      O       5.1171018679     5.7436924584    -4.6079923826
    2      C       5.8858839207     6.8367507061    -5.2001805473
    3      H       6.5428282424     7.3500975575    -4.4881551486
    4      H       5.2171701005     7.6393715603    -5.5352291871
    5      H       6.4977066994     6.4871189932    -6.0410019034
    6      O       3.7850404135     7.0582796995    -3.3530610430
    7      C       4.1599358499     5.9398994592    -3.7238939566
    8      C       3.7401166679     4.6486863965    -3.0759690528
    9      H       4.7580296257     4.3044399009    -2.8536009780
   10      H       3.2354914739     3.9012253714    -3.7010781869
   11      C       2.9549235075     4.9768713276    -1.7873991665
   12      H       3.5051893516     5.6771759018    -1.1467916390
   13      H       1.9422975847     5.3472592802    -1.9943182449
   14      C       2.9450725577     3.7281837476    -0.8898913468
   15      H       2.3199651296     3.9832985630    -0.0249230617
   16      H       2.2945135854     2.9321281676    -1.2705257346
   17      C       4.3415722250     3.1772550208    -0.3378983963
   18      C       5.1784594333     4.2860868765     0.2012219208
   19      C       6.4552031821     4.7244051228    -0.2525594305
   20      H       6.9139483777     4.1484890197    -1.0516479661
   21      C       7.2367941059     5.7258063732     0.4275892029
   22      H       8.2631183146     5.8903437090     0.1107752454
   23      C       6.6523567812     6.3563247921     1.5377759155
   24      H       7.0979844105     7.1243892869     2.1619993914
   25      C       5.3575763943     5.9867295861     1.9125773744
   26      H       4.9421186675     6.4968866588     2.7763416006
   27      C       4.6239365268     5.0501325502     1.2529740564
   28      H       3.6249249898     4.8579987188     1.6319285915
   29      C       8.4611193760    -0.4451349661    -1.2130127046
   30      C       8.3209430197    -0.2409844561     1.2047058809
   31      C       6.5849205523    -4.2414896851     2.1585831819
   32      C       3.7369529279    -1.6299100439    -2.9204000025
   33      C       3.3892898784    -3.0731346330     2.6086388099
   34      C       8.2613499595     0.3544278601    -0.0854021924
   35      C       2.5055879281    -3.1681447373    -0.9031837857
   36      C       8.2670032630    -3.5449905720     0.4542179805
   37      C       4.7121801047     0.7583054651     2.5709927749
   38      C       2.9077172935    -1.0150157046    -1.9461642947
   39      C       4.3699784796     1.9400232421     0.4759963207
   40      C       3.4025507028     0.4290150826     2.0848244155
   41      C       2.0792187793    -1.0332729339     0.1327779568
   42      C       2.5461347754    -3.7323293846     0.3971748713
   43      C       6.7123407324     1.2911385400     1.2720765429
   44      C       4.5410022484    -4.7060756813     1.4360910925
   45      C       4.9058991034     1.9032912649    -0.9555014428
   46      C       4.2395567119     0.9644961101    -1.8947567194
   47      C       4.4086058901    -4.0008338958     2.5984925844
   48      C       6.1693294486    -4.0473281786    -2.1486493802
   49      C       6.3975573010    -4.9781823551    -0.1340048583
   50      C       7.5799447008    -4.2648546786    -0.5020383659
   51      C       8.8908765205    -2.3789266546     0.2012533604
   52      C       5.1451352739     0.2754152020    -2.6550809727
   53      C       5.3560415867     1.5842615731     1.5935302950
   54      C       8.7406723075    -1.5893516242     1.3446605345
   55      C       2.3019907440    -1.7741550068    -0.9960375311
   56      C       7.4212769932     0.4025853744     2.0367154446
   57      C       2.9311721681    -0.8381822709     2.3462381567
   58      C       6.0048802805    -1.9022948050    -3.2503940408
   59      C       7.8645757935    -3.6038276386     1.8463948125
   60      C       3.1840671042     1.0029844381     0.8368944912
   61      C       8.0288333594    -2.4800614198    -2.1148542251
   62      C       2.1600668324    -1.5698099633     1.3969644970
   63      C       5.4531249139    -0.2025950692     3.2633315309
   64      C       4.1354409183    -4.6720053971    -0.9902432256
   65      C       3.3557909466    -3.8081791516    -1.8333814937
   66      C       4.9112023137    -1.4479612830     3.5831484926
   67      C       4.9893880665    -0.9931723819    -3.1582095341
   68      C       3.1162892846     0.2810183984    -1.4814704940
   69      C       5.4160045375    -3.1533410370    -2.9225683480
   70      C       6.3771627655     1.5122116258    -1.1605135215
   71      C       7.1280634933    -1.6943411539     3.2492825472
   72      C       2.5782012342     0.2729537871    -0.1923439633
   73      C       3.6279071034    -1.7906415362     3.1550940017
   74      C       7.2866461039    -1.5613383894    -2.8757313973
   75      C       5.6911139839    -3.6669544345     3.0808695063
   76      C       8.7148958595    -1.8280932790    -1.0864789096
   77      C       5.8918432077    -4.9454269406     1.1675977457
   78      C       6.8069271818    -0.3653159560     3.0220965160
   79      C       5.9678819828    -2.3676642070     3.5802144567
   80      C       7.2529293442     1.2746887231    -0.0527401827
   81      C       6.4799570848     0.6223464826    -2.2613038534
   82      C       5.5145823143    -4.8144295260    -1.2074997040
   83      C       8.1155617088    -2.3319912966     2.3880075796
   84      C       2.4766224725    -2.9269005891     1.5575370972
   85      C       4.0215914905    -2.9976380572    -2.7543368509
   86      C       3.6263861245    -4.6175579483     0.3678420781
   87      C       7.5475555911    -0.3187046310    -2.2721772721
   88      C       7.4783985852    -3.7787691527    -1.8016118529
   89      O      -5.4055300623    -4.3200885471    -4.0989352782
   90      C      -4.7838554504    -3.9484914539    -5.3647718700
   91      H      -5.5032177668    -4.0819764953    -6.1806962547
   92      H      -3.8081395743    -4.4132740965    -5.5521981871
   93      H      -4.5450038997    -2.8814087919    -5.2756341715
   94      O      -7.0058484007    -2.6847690091    -4.0355458128
   95      C      -6.5413190654    -3.7317839196    -3.6598248074
   96      C      -7.1231878204    -4.5396353616    -2.4919965668
   97      H      -6.3670603766    -4.4168045359    -1.7071979448
   98      H      -7.1731810503    -5.5743879565    -2.8521975447
   99      C      -8.5050441199    -3.9888343807    -2.0171319052
  100      H      -8.9966557965    -3.3360659512    -2.7485806983
  101      H      -9.0608857744    -4.9252646933    -1.8787146923
  102      C      -8.3647714202    -3.3734173472    -0.6148093872
  103      H      -9.2353224983    -3.6529460512    -0.0072021751
  104      H      -7.6031370784    -3.8516753305     0.0125823809
  105      C      -8.3881879194    -1.8410267071    -0.5142281073
  106      C      -9.6966311429    -1.2937573829    -0.9776001151
  107      C      -9.8593591818    -0.8659651170    -2.2946283466
  108      H      -9.0332184012    -1.0396254248    -2.9769446282
  109      C     -11.0609609198    -0.3466580683    -2.6976016116
  110      H     -11.2507906490    -0.0757692943    -3.7321536625
  111      C     -12.1796103862    -0.2007489544    -1.8193528416
  112      H     -13.1061403924     0.3177508233    -2.0464059807
  113      C     -11.9738180168    -0.5537907057    -0.4566756889
  114      H     -12.7720488589    -0.5320459162     0.2791542419
  115      C     -10.7565465993    -1.1714097625    -0.0616529086
  116      H     -10.6784155984    -1.5492376868     0.9532927088
  117      C      -5.5035953975     2.6500075899    -1.8567827341
  118      C      -6.6495882487     3.3409245299     0.1214900396
  119      C      -3.0598250305     3.4089185655     2.8523686252
  120      C      -2.9413793226    -1.6348502928    -0.9822338729
  121      C      -3.7450208007     0.2296167946     4.2888525289
  122      C      -6.5957486588     2.5759224735    -1.0257937754
  123      C      -2.1263763007    -1.6606212311     1.6641995635
  124      C      -3.2731220985     4.1897612069     0.5129509347
  125      C      -7.2925034174     0.1736034953     2.5294459258
  126      C      -3.6886052576    -2.3810572145     0.0069272020
  127      C      -7.6176982843    -1.1567260550     0.5741777636
  128      C      -6.6905070726    -0.9967132419     2.8027975958
  129      C      -4.3857116669    -2.4943228740     2.1250295472
  130      C      -2.1045838078    -0.9339132267     2.7729820325
  131      C      -7.7960928331     1.3638896745     0.5078699287
  132      C      -1.9019711079     1.4690960687     3.2061891654
  133      C      -7.1493220609    -1.1545400999    -0.8722246476
  134      C      -5.7991976456    -1.7435183283    -1.1206813029
  135      C      -3.0189368649     1.3914775532     4.0429100649
  136      C      -1.3444988390     1.5222430234    -0.7507484220
  137      C      -1.4351675426     2.7311474565     1.1719554704
  138      C      -2.0770704035     3.5021145737     0.1673956556
  139      C      -4.3799441818     4.1857581541    -0.3199541327
  140      C      -5.0003884588    -0.9226529594    -2.0139399044
  141      C      -7.8758384486     0.1640548560     1.2294085937
  142      C      -5.5273550706     4.1390189927     0.4957772588
  143      C      -3.3021973621    -2.3669409883     1.2971747250
  144      C      -7.3589985866     2.5542811854     1.0924062157
  145      C      -5.5608087273    -0.9616697159     3.6976878684
  146      C      -2.8906059992     0.2499969826    -2.2277577859
  147      C      -3.7181906998     4.1831282613     1.8682162018
  148      C      -6.7166365009    -1.8284749385     1.6696242935
  149      C      -3.2045937880     2.6154939702    -1.8122921790
  150      C      -4.3657823458    -1.7480301400     3.3088251281
  151      C      -6.8857136329     1.3582262607     3.1151489007
  152      C      -0.9545910650     0.3218853700     1.2758325489
  153      C      -1.3922408386    -0.8921631202     0.6996052160
  154      C      -5.8546158081     1.4060037718     4.0558298164
  155      C      -3.6234544987    -0.9358979283    -2.0157947305
  156      C      -5.0834816448    -2.3482669372    -0.0383459915
  157      C      -1.8437999478     0.2752352451    -1.3470704856
  158      C      -6.9382045936     0.2043623649    -1.5331009645
  159      C      -5.8194035517     3.3521635228     2.8309852055
  160      C      -5.5206725819    -2.4210244139     1.2828680086
  161      C      -5.1452364297     0.1788543275     4.3491796734
  162      C      -3.5892064313     1.4760213299    -2.4489720174
  163      C      -3.7522555251     2.5964187627     3.7944902100
  164      C      -4.3615886409     3.3616559032    -1.4674599297
  165      C      -1.9064738879     2.6865703472     2.4980690440
  166      C      -6.9154494410     2.5729488855     2.3979887188
  167      C      -5.1553489515     2.5900242891     3.8185930611
  168      C      -7.2771734034     1.3527285202    -0.8153730777
  169      C      -5.7281054679     0.2551773014    -2.2466238779
  170      C      -0.8871080398     1.5499220475     0.5740747845
  171      C      -5.1156831252     4.1016203896     1.8583984659
  172      C      -3.2487365745    -0.9574867775     3.6396029035
  173      C      -1.8443833707    -0.8875832123    -0.6105272792
  174      C      -1.3709199210     0.2664842857     2.6239078448
  175      C      -5.0247460800     1.4967707468    -2.4468794337
  176      C      -2.1103534767     2.7227266711    -0.9543403803
 ----------------------------------------------------------------
 Molecular Point Group                 C1    NOp =  1
 Largest Abelian Subgroup              C1    NOp =  1
 Nuclear Repulsion Energy = 34327.8828359238 hartrees
 There are      462 alpha and      462 beta electrons
 Requested basis set is 6-31G(d,p)
 There are 676 shells and 2360 basis functions

 Total QAlloc Memory Limit  20000 MB
 Mega-Array Size      4888 MB
 MEM_STATIC part      5000 MB
 A cutoff of  1.0D-08 yielded  37301 shell pairs
 There are    524847 function pairs
 
 -------------------------------------------------------
 OpenMP Integral Computing Module                       
 Release: version 1.0, May 2013, Q-Chem Inc. Pittsburgh 
 -------------------------------------------------------
 Integral Job Info:
 Integral job number is                      11
 Integral operator is                         1
 short-range coefficients                     0
 long-range coefficients              100000000
 Omega coefficients                           0
 if combine SR and LR in K                    0
 Integral screening is                        0
 Integral computing path is                   2
 max size of driver memory is            800000
 size of driver memory is                593474
 size of scratch memory is              2260544
 max col of scratch BK array               1296
 max len of scratch array in speh3          155
 max len of scratch index in speh4           18
 max int batch size is                      520
 min int batch size is                       52
 fixed nKL is                                52
 max L of basis functions is                  2
 order of int derivative is                   0
 number of shells is                        676
 number of basis is                        2360
 number of cartesian basis is              2360
 number of contracted shell pairs         37301
 number of primitive shell pairs         113253
 maxK2 (contraction) of shell pair           36
 max number of K2 of shell pair               1
 max number of CS2 of shell pair           7136
 max number of PS2 of shell pair          34374
 mem total for path MDJ                 1490520
 -------------------------------------------------------
 Smallest overlap matrix eigenvalue = 2.60E-04

 Scale SEOQF with 1.000000e-02/1.000000e-02/1.000000e-02

 Standard Electronic Orientation quadrupole field applied
 Nucleus-field energy     =     0.0000001178 hartrees
 Guess from superposition of atomic densities
 Warning:  Energy on first SCF cycle will be non-variational
 A restricted hybrid HF-DFT SCF calculation will be
 performed using Pulay DIIS extrapolation
 Exchange:     0.2000 Hartree-Fock + 0.0800 Slater + 0.7200 B88
 Correlation:  0.1900 VWN1RPA + 0.8100 LYP
 Using SG-1 standard quadrature grid
 SCF converges when DIIS error is below 1.0E-05
 using 16 threads for integral computing 
 -------------------------------------------------------
 OpenMP BLAS3 based DFT computing Module                
 Release: version 1.0, May 2013, Q-Chem Inc. Pittsburgh 
 -------------------------------------------------------
 ---------------------------------------
  Cycle       Energy         DIIS Error
 ---------------------------------------
    1   -5858.3418177552      1.83E-02
    2   -5803.1209794962      1.29E-03
    3   -5802.3131690992      1.80E-03
    4   -5803.9828004122      6.42E-04
    5   -5804.2087910917      2.87E-04
    6   -5804.2604679750      1.28E-04
    7   -5804.2711441652      4.21E-05
    8   -5804.2719131345      2.57E-05
    9   -5804.2724063961      7.56E-06 Convergence criterion met
 ---------------------------------------
 SCF time:  CPU 8103.43 s  wall 830.93 s
 SCF   energy in the final basis set = -5804.2724063961
 Total energy in the final basis set = -5804.2724063961
 
 --------------------------------------------------------------
 
                    Orbital Energies (a.u.)
 --------------------------------------------------------------
 
 Alpha MOs
 -- Occupied --
-19.194 -19.193 -19.142 -19.122 -10.319 -10.309 -10.252 -10.249
-10.242 -10.242 -10.240 -10.240 -10.235 -10.232 -10.230 -10.228
-10.228 -10.227 -10.227 -10.225 -10.225 -10.223 -10.223 -10.222
-10.222 -10.221 -10.220 -10.220 -10.220 -10.220 -10.220 -10.219
-10.219 -10.219 -10.219 -10.219 -10.219 -10.218 -10.217 -10.217
-10.217 -10.217 -10.216 -10.216 -10.216 -10.216 -10.216 -10.216
-10.216 -10.216 -10.216 -10.216 -10.215 -10.215 -10.215 -10.215
-10.215 -10.215 -10.215 -10.215 -10.215 -10.215 -10.214 -10.214
-10.214 -10.214 -10.214 -10.214 -10.214 -10.214 -10.214 -10.213
-10.213 -10.213 -10.213 -10.213 -10.213 -10.213 -10.213 -10.213
-10.212 -10.212 -10.212 -10.212 -10.212 -10.212 -10.212 -10.212
-10.212 -10.211 -10.211 -10.211 -10.211 -10.211 -10.211 -10.210
-10.210 -10.210 -10.210 -10.210 -10.210 -10.210 -10.210 -10.210
-10.210 -10.210 -10.209 -10.209 -10.209 -10.209 -10.208 -10.208
-10.208 -10.208 -10.208 -10.208 -10.208 -10.207 -10.207 -10.207
-10.207 -10.206 -10.206 -10.206 -10.205 -10.205 -10.204 -10.204
-10.203 -10.203 -10.203 -10.202 -10.202 -10.201 -10.201 -10.201
-10.199 -10.199 -10.199 -10.198 -10.197 -10.196 -10.196 -10.196
-10.192 -10.191 -10.189 -10.189  -1.098  -1.097  -1.021  -0.994
 -0.982  -0.979  -0.964  -0.963  -0.962  -0.960  -0.960  -0.958
 -0.933  -0.931  -0.928  -0.927  -0.924  -0.922  -0.922  -0.921
 -0.919  -0.917  -0.897  -0.896  -0.888  -0.887  -0.883  -0.882
 -0.874  -0.871  -0.851  -0.850  -0.843  -0.841  -0.840  -0.835
 -0.833  -0.833  -0.819  -0.817  -0.803  -0.802  -0.798  -0.797
 -0.796  -0.793  -0.793  -0.791  -0.789  -0.786  -0.784  -0.781
 -0.772  -0.770  -0.769  -0.767  -0.763  -0.762  -0.761  -0.760
 -0.748  -0.746  -0.746  -0.745  -0.733  -0.732  -0.716  -0.714
 -0.714  -0.713  -0.712  -0.712  -0.711  -0.708  -0.708  -0.706
 -0.705  -0.704  -0.704  -0.703  -0.701  -0.701  -0.672  -0.671
 -0.659  -0.655  -0.654  -0.653  -0.648  -0.646  -0.630  -0.630
 -0.628  -0.626  -0.623  -0.621  -0.621  -0.620  -0.616  -0.615
 -0.615  -0.613  -0.612  -0.611  -0.609  -0.608  -0.607  -0.604
 -0.603  -0.603  -0.601  -0.600  -0.566  -0.565  -0.564  -0.561
 -0.559  -0.558  -0.558  -0.555  -0.554  -0.553  -0.552  -0.548
 -0.537  -0.534  -0.532  -0.530  -0.527  -0.527  -0.526  -0.525
 -0.523  -0.520  -0.519  -0.518  -0.513  -0.513  -0.512  -0.510
 -0.504  -0.502  -0.500  -0.498  -0.495  -0.492  -0.486  -0.485
 -0.483  -0.482  -0.480  -0.480  -0.479  -0.478  -0.476  -0.474
 -0.474  -0.470  -0.470  -0.469  -0.468  -0.466  -0.465  -0.464
 -0.463  -0.463  -0.461  -0.460  -0.459  -0.459  -0.457  -0.457
 -0.454  -0.453  -0.452  -0.450  -0.449  -0.444  -0.443  -0.442
 -0.441  -0.441  -0.438  -0.437  -0.437  -0.435  -0.431  -0.430
 -0.429  -0.428  -0.427  -0.426  -0.426  -0.425  -0.422  -0.422
 -0.421  -0.421  -0.420  -0.420  -0.419  -0.418  -0.417  -0.416
 -0.416  -0.415  -0.414  -0.414  -0.413  -0.411  -0.411  -0.411
 -0.410  -0.408  -0.407  -0.405  -0.400  -0.400  -0.398  -0.394
 -0.394  -0.392  -0.390  -0.389  -0.387  -0.384  -0.383  -0.380
 -0.380  -0.379  -0.372  -0.370  -0.367  -0.366  -0.365  -0.363
 -0.363  -0.361  -0.360  -0.359  -0.359  -0.358  -0.356  -0.356
 -0.354  -0.354  -0.352  -0.352  -0.351  -0.350  -0.349  -0.348
 -0.347  -0.346  -0.346  -0.345  -0.345  -0.344  -0.342  -0.342
 -0.341  -0.339  -0.339  -0.338  -0.336  -0.336  -0.334  -0.332
 -0.331  -0.329  -0.328  -0.327  -0.325  -0.323  -0.322  -0.320
 -0.313  -0.308  -0.302  -0.293  -0.285  -0.282  -0.276  -0.271
 -0.269  -0.268  -0.267  -0.267  -0.265  -0.264  -0.262  -0.261
 -0.260  -0.259  -0.258  -0.255  -0.254  -0.254  -0.252  -0.251
 -0.248  -0.246  -0.243  -0.242  -0.221  -0.217  -0.213  -0.211
 -0.207  -0.207  -0.206  -0.203  -0.203  -0.198
 -- Virtual --
 -0.123  -0.119  -0.117  -0.114  -0.111  -0.105  -0.080  -0.079
 -0.072  -0.067  -0.057  -0.055  -0.053  -0.052  -0.024  -0.022
 -0.020  -0.019  -0.018  -0.016  -0.015  -0.014  -0.013  -0.012
 -0.009  -0.008  -0.007  -0.005  -0.005  -0.004   0.008   0.009
  0.010   0.016   0.035   0.038   0.042   0.043   0.043   0.046
  0.049   0.051   0.054   0.058   0.065   0.068   0.070   0.072
  0.074   0.077   0.080   0.082   0.083   0.087   0.093   0.094
  0.094   0.098   0.099   0.102   0.103   0.104   0.105   0.105
  0.107   0.108   0.109   0.111   0.112   0.115   0.118   0.120
  0.122   0.124   0.127   0.130   0.130   0.131   0.134   0.140
  0.141   0.145   0.147   0.148   0.151   0.155   0.156   0.158
  0.159   0.160   0.161   0.163   0.164   0.168   0.169   0.171
  0.171   0.174   0.175   0.176   0.177   0.178   0.179   0.183
  0.184   0.185   0.188   0.188   0.190   0.190   0.191   0.193
  0.194   0.198   0.200   0.202   0.204   0.204   0.206   0.210
  0.210   0.213   0.214   0.214   0.217   0.217   0.219   0.220
  0.220   0.221   0.224   0.225   0.227   0.229   0.229   0.230
  0.232   0.235   0.236   0.238   0.240   0.242   0.242   0.243
  0.243   0.244   0.246   0.252   0.252   0.258   0.261   0.263
  0.264   0.270   0.273   0.274   0.275   0.275   0.280   0.282
  0.285   0.287   0.289   0.293   0.298   0.299   0.301   0.306
  0.307   0.310   0.312   0.313   0.315   0.317   0.320   0.320
  0.321   0.324   0.325   0.326   0.329   0.329   0.330   0.333
  0.336   0.338   0.340   0.346   0.348   0.348   0.350   0.354
  0.355   0.358   0.364   0.370   0.372   0.379   0.384   0.389
  0.392   0.395   0.397   0.400   0.402   0.404   0.405   0.410
  0.411   0.413   0.416   0.416   0.417   0.418   0.421   0.421
  0.425   0.429   0.435   0.436   0.439   0.444   0.446   0.447
  0.448   0.453   0.454   0.457   0.459   0.462   0.463   0.465
  0.466   0.466   0.468   0.470   0.471   0.473   0.474   0.476
  0.478   0.479   0.480   0.482   0.484   0.485   0.487   0.488
  0.488   0.491   0.491   0.492   0.493   0.494   0.496   0.497
  0.498   0.499   0.500   0.502   0.502   0.503   0.504   0.504
  0.505   0.507   0.507   0.509   0.509   0.511   0.512   0.513
  0.514   0.514   0.515   0.517   0.517   0.518   0.519   0.519
  0.521   0.522   0.522   0.524   0.524   0.525   0.526   0.527
  0.527   0.528   0.529   0.530   0.532   0.532   0.533   0.534
  0.535   0.536   0.536   0.537   0.538   0.538   0.539   0.541
  0.541   0.542   0.543   0.543   0.544   0.544   0.545   0.546
  0.548   0.548   0.549   0.550   0.550   0.550   0.552   0.552
  0.553   0.554   0.555   0.555   0.556   0.557   0.558   0.558
  0.559   0.560   0.560   0.562   0.563   0.563   0.564   0.565
  0.565   0.566   0.567   0.568   0.568   0.570   0.571   0.571
  0.573   0.574   0.575   0.576   0.577   0.577   0.578   0.578
  0.580   0.581   0.581   0.582   0.583   0.583   0.584   0.586
  0.587   0.588   0.589   0.590   0.590   0.591   0.591   0.591
  0.592   0.593   0.594   0.596   0.596   0.598   0.598   0.599
  0.600   0.601   0.602   0.603   0.604   0.605   0.607   0.608
  0.608   0.610   0.611   0.612   0.614   0.615   0.616   0.616
  0.618   0.620   0.621   0.622   0.624   0.625   0.626   0.628
  0.629   0.629   0.630   0.630   0.632   0.632   0.633   0.634
  0.634   0.634   0.636   0.637   0.638   0.639   0.640   0.640
  0.642   0.643   0.646   0.646   0.648   0.649   0.650   0.651
  0.652   0.653   0.654   0.654   0.656   0.657   0.657   0.658
  0.659   0.660   0.660   0.660   0.662   0.663   0.663   0.664
  0.664   0.664   0.666   0.667   0.667   0.668   0.669   0.670
  0.670   0.672   0.673   0.674   0.674   0.675   0.676   0.677
  0.678   0.679   0.682   0.683   0.683   0.684   0.685   0.687
  0.689   0.689   0.690   0.691   0.692   0.692   0.693   0.694
  0.695   0.698   0.699   0.700   0.701   0.702   0.704   0.706
  0.707   0.709   0.710   0.710   0.711   0.712   0.713   0.714
  0.715   0.718   0.719   0.719   0.720   0.723   0.724   0.725
  0.726   0.727   0.728   0.728   0.730   0.730   0.731   0.733
  0.734   0.735   0.736   0.737   0.740   0.742   0.744   0.745
  0.746   0.750   0.751   0.754   0.755   0.756   0.757   0.758
  0.760   0.762   0.763   0.764   0.765   0.766   0.768   0.770
  0.770   0.771   0.774   0.775   0.777   0.777   0.778   0.779
  0.782   0.782   0.783   0.784   0.785   0.786   0.787   0.788
  0.789   0.790   0.792   0.793   0.795   0.796   0.797   0.798
  0.799   0.800   0.802   0.803   0.804   0.805   0.805   0.806
  0.808   0.808   0.809   0.810   0.810   0.811   0.811   0.812
  0.813   0.814   0.815   0.815   0.816   0.817   0.818   0.819
  0.820   0.821   0.822   0.822   0.823   0.823   0.824   0.825
  0.826   0.827   0.827   0.828   0.830   0.831   0.833   0.834
  0.835   0.837   0.837   0.839   0.840   0.843   0.844   0.848
  0.849   0.851   0.852   0.857   0.858   0.860   0.862   0.863
  0.867   0.868   0.872   0.876   0.879   0.884   0.890   0.891
  0.893   0.895   0.898   0.901   0.903   0.904   0.905   0.906
  0.908   0.910   0.916   0.918   0.918   0.922   0.924   0.925
  0.927   0.928   0.930   0.931   0.932   0.933   0.935   0.937
  0.939   0.939   0.941   0.944   0.945   0.946   0.947   0.949
  0.950   0.952   0.956   0.958   0.961   0.962   0.965   0.968
  0.970   0.972   0.975   0.979   0.981   0.985   0.986   0.988
  0.989   0.990   0.993   0.995   0.998   1.000   1.003   1.007
  1.009   1.010   1.011   1.013   1.015   1.016   1.016   1.018
  1.019   1.021   1.021   1.023   1.024   1.024   1.026   1.029
  1.031   1.033   1.035   1.037   1.038   1.041   1.043   1.044
  1.046   1.048   1.048   1.051   1.052   1.054   1.057   1.058
  1.060   1.062   1.063   1.065   1.067   1.068   1.071   1.073
  1.074   1.076   1.078   1.079   1.080   1.082   1.083   1.085
  1.085   1.087   1.090   1.091   1.093   1.095   1.096   1.097
  1.101   1.101   1.102   1.104   1.107   1.109   1.109   1.113
  1.115   1.116   1.118   1.121   1.123   1.127   1.128   1.130
  1.133   1.134   1.139   1.141   1.142   1.144   1.146   1.147
  1.148   1.152   1.154   1.157   1.158   1.160   1.161   1.162
  1.163   1.167   1.167   1.168   1.170   1.171   1.173   1.175
  1.176   1.177   1.179   1.180   1.184   1.184   1.185   1.186
  1.187   1.189   1.191   1.191   1.194   1.197   1.199   1.199
  1.200   1.202   1.207   1.209   1.212   1.215   1.216   1.220
  1.224   1.225   1.228   1.230   1.231   1.233   1.236   1.238
  1.242   1.249   1.251   1.254   1.256   1.257   1.259   1.261
  1.263   1.264   1.265   1.268   1.269   1.272   1.275   1.275
  1.279   1.280   1.283   1.283   1.284   1.287   1.288   1.290
  1.292   1.295   1.297   1.300   1.305   1.306   1.310   1.310
  1.315   1.316   1.318   1.319   1.324   1.325   1.326   1.327
  1.331   1.332   1.334   1.335   1.337   1.345   1.349   1.352
  1.353   1.354   1.356   1.357   1.359   1.364   1.367   1.367
  1.370   1.371   1.372   1.378   1.381   1.384   1.385   1.387
  1.389   1.391   1.394   1.396   1.399   1.403   1.404   1.407
  1.409   1.412   1.413   1.416   1.417   1.420   1.422   1.423
  1.430   1.437   1.437   1.442   1.444   1.446   1.449   1.451
  1.454   1.455   1.458   1.459   1.460   1.460   1.464   1.466
  1.468   1.469   1.471   1.473   1.474   1.475   1.478   1.481
  1.481   1.484   1.486   1.491   1.492   1.494   1.496   1.501
  1.503   1.506   1.507   1.509   1.512   1.514   1.515   1.518
  1.520   1.526   1.526   1.530   1.532   1.534   1.536   1.537
  1.538   1.540   1.543   1.546   1.546   1.552   1.552   1.556
  1.557   1.562   1.565   1.567   1.568   1.572   1.572   1.575
  1.577   1.579   1.581   1.583   1.587   1.589   1.589   1.593
  1.594   1.597   1.601   1.606   1.612   1.614   1.619   1.620
  1.625   1.626   1.630   1.634   1.638   1.640   1.641   1.646
  1.653   1.658   1.659   1.662   1.662   1.666   1.669   1.671
  1.673   1.675   1.683   1.687   1.689   1.691   1.695   1.698
  1.700   1.702   1.702   1.705   1.708   1.712   1.713   1.716
  1.716   1.717   1.719   1.725   1.727   1.729   1.732   1.733
  1.737   1.737   1.739   1.741   1.742   1.743   1.745   1.746
  1.749   1.752   1.753   1.755   1.756   1.757   1.758   1.760
  1.761   1.762   1.764   1.764   1.765   1.768   1.768   1.770
  1.771   1.772   1.773   1.774   1.776   1.778   1.779   1.780
  1.780   1.783   1.783   1.785   1.786   1.787   1.788   1.789
  1.792   1.793   1.794   1.795   1.797   1.799   1.799   1.800
  1.802   1.803   1.805   1.805   1.806   1.808   1.810   1.810
  1.814   1.815   1.817   1.818   1.819   1.819   1.822   1.823
  1.826   1.827   1.827   1.828   1.835   1.836   1.836   1.838
  1.838   1.841   1.842   1.843   1.849   1.850   1.851   1.853
  1.854   1.855   1.862   1.863   1.865   1.866   1.867   1.868
  1.871   1.872   1.874   1.877   1.878   1.880   1.880   1.882
  1.883   1.884   1.886   1.892   1.896   1.898   1.903   1.906
  1.908   1.910   1.910   1.916   1.917   1.922   1.923   1.925
  1.926   1.926   1.928   1.930   1.933   1.934   1.935   1.937
  1.939   1.941   1.942   1.943   1.944   1.949   1.951   1.951
  1.952   1.955   1.958   1.959   1.964   1.965   1.966   1.970
  1.971   1.973   1.974   1.976   1.978   1.979   1.981   1.983
  1.984   1.985   1.986   1.988   1.989   1.992   1.994   1.995
  1.998   1.999   2.001   2.002   2.004   2.004   2.005   2.006
  2.007   2.007   2.008   2.009   2.012   2.013   2.016   2.016
  2.017   2.018   2.019   2.020   2.022   2.022   2.023   2.024
  2.026   2.027   2.028   2.031   2.032   2.032   2.033   2.035
  2.036   2.037   2.038   2.040   2.041   2.042   2.043   2.046
  2.047   2.048   2.049   2.050   2.051   2.052   2.054   2.056
  2.059   2.060   2.061   2.062   2.062   2.064   2.065   2.065
  2.067   2.067   2.068   2.069   2.070   2.073   2.074   2.075
  2.077   2.079   2.082   2.083   2.084   2.085   2.087   2.087
  2.089   2.092   2.094   2.095   2.097   2.099   2.105   2.107
  2.109   2.113   2.114   2.114   2.115   2.117   2.118   2.123
  2.124   2.127   2.128   2.131   2.134   2.136   2.138   2.141
  2.144   2.146   2.147   2.148   2.154   2.160   2.162   2.164
  2.174   2.175   2.181   2.184   2.189   2.194   2.200   2.204
  2.205   2.205   2.209   2.210   2.216   2.220   2.221   2.222
  2.225   2.226   2.231   2.233   2.235   2.238   2.240   2.244
  2.249   2.250   2.255   2.256   2.257   2.258   2.260   2.263
  2.265   2.268   2.271   2.272   2.272   2.276   2.279   2.281
  2.286   2.287   2.289   2.292   2.297   2.298   2.299   2.304
  2.305   2.310   2.311   2.311   2.314   2.315   2.316   2.319
  2.320   2.322   2.324   2.326   2.327   2.329   2.331   2.336
  2.341   2.343   2.344   2.346   2.347   2.349   2.351   2.355
  2.359   2.361   2.362   2.363   2.365   2.368   2.370   2.370
  2.374   2.374   2.375   2.376   2.379   2.379   2.383   2.384
  2.384   2.385   2.387   2.389   2.389   2.392   2.394   2.396
  2.397   2.399   2.399   2.402   2.402   2.404   2.406   2.407
  2.409   2.411   2.411   2.413   2.415   2.420   2.422   2.422
  2.424   2.426   2.428   2.429   2.435   2.436   2.439   2.441
  2.445   2.446   2.448   2.450   2.452   2.453   2.455   2.459
  2.462   2.462   2.464   2.467   2.472   2.473   2.474   2.476
  2.478   2.479   2.480   2.483   2.483   2.485   2.486   2.488
  2.490   2.491   2.494   2.496   2.497   2.500   2.501   2.502
  2.504   2.507   2.509   2.512   2.513   2.515   2.516   2.519
  2.520   2.526   2.527   2.529   2.530   2.531   2.532   2.540
  2.543   2.543   2.547   2.551   2.553   2.556   2.560   2.563
  2.572   2.573   2.576   2.577   2.581   2.585   2.588   2.590
  2.593   2.594   2.595   2.598   2.599   2.599   2.603   2.604
  2.605   2.609   2.612   2.612   2.615   2.616   2.619   2.620
  2.622   2.624   2.625   2.628   2.630   2.631   2.633   2.633
  2.636   2.636   2.637   2.640   2.641   2.645   2.645   2.646
  2.647   2.649   2.652   2.652   2.654   2.654   2.657   2.658
  2.662   2.663   2.664   2.665   2.667   2.668   2.668   2.671
  2.674   2.676   2.677   2.678   2.679   2.680   2.683   2.684
  2.685   2.686   2.691   2.692   2.693   2.695   2.698   2.705
  2.706   2.710   2.714   2.716   2.717   2.718   2.722   2.725
  2.728   2.729   2.730   2.731   2.734   2.738   2.744   2.745
  2.746   2.747   2.751   2.753   2.755   2.757   2.759   2.761
  2.761   2.763   2.764   2.768   2.769   2.770   2.771   2.771
  2.773   2.777   2.780   2.785   2.787   2.788   2.792   2.794
  2.799   2.802   2.803   2.808   2.811   2.815   2.817   2.820
  2.821   2.826   2.827   2.829   2.829   2.831   2.833   2.836
  2.837   2.839   2.842   2.844   2.850   2.853   2.856   2.857
  2.859   2.860   2.863   2.865   2.867   2.868   2.871   2.873
  2.877   2.881   2.885   2.886   2.888   2.889   2.891   2.892
  2.892   2.896   2.898   2.899   2.901   2.902   2.903   2.904
  2.907   2.909   2.910   2.911   2.912   2.913   2.915   2.917
  2.919   2.920   2.924   2.928   2.929   2.930   2.932   2.934
  2.934   2.936   2.940   2.943   2.944   2.948   2.949   2.952
  2.955   2.958   2.959   2.965   2.967   2.970   2.972   2.976
  2.977   2.982   2.985   2.986   2.989   2.995   2.998   3.001
  3.004   3.006   3.011   3.011   3.014   3.018   3.018   3.023
  3.027   3.028   3.030   3.031   3.034   3.035   3.041   3.042
  3.045   3.046   3.050   3.051   3.055   3.063   3.064   3.067
  3.068   3.069   3.074   3.077   3.078   3.085   3.093   3.099
  3.106   3.108   3.117   3.128   3.133   3.143   3.147   3.153
  3.158   3.165   3.166   3.166   3.168   3.173   3.180   3.187
  3.194   3.200   3.205   3.205   3.228   3.234   3.235   3.241
  3.243   3.249   3.251   3.260   3.267   3.269   3.270   3.277
  3.285   3.309   3.317   3.319   3.319   3.329   3.334   3.335
  3.337   3.341   3.346   3.347   3.353   3.363   3.384   3.387
  3.392   3.412   3.413   3.415   3.424   3.428   3.436   3.437
  3.445   3.450   3.453   3.472   3.478   3.480   3.482   3.487
  3.492   3.497   3.505   3.516   3.520   3.521   3.527   3.545
  3.549   3.550   3.555   3.562   3.562   3.577   3.582   3.595
  3.599   3.602   3.674   3.690   3.857   3.860   4.010   4.023
  4.072   4.078   4.085   4.090   4.092   4.092   4.097   4.097
  4.100   4.103   4.109   4.111   4.116   4.118   4.121   4.126
  4.127   4.128   4.129   4.131   4.147   4.147   4.153   4.155
  4.160   4.163   4.165   4.170   4.172   4.178   4.180   4.184
  4.186   4.189   4.190   4.207   4.212   4.219   4.238   4.239
  4.244   4.244   4.247   4.249   4.253   4.257   4.259   4.263
  4.266   4.274   4.275   4.282   4.284   4.288   4.293   4.297
  4.303   4.312   4.315   4.316   4.386   4.386   4.392   4.393
  4.397   4.398   4.403   4.407   4.408   4.414   4.415   4.418
  4.421   4.424   4.427   4.428   4.432   4.433   4.451   4.458
  4.477   4.480   4.497   4.532   4.537   4.547   4.550   4.552
  4.559   4.561   4.616   4.617   4.628   4.629   4.635   4.639
  4.647   4.655   4.682   4.685   4.692   4.694   4.696   4.700
  4.703   4.705   4.711   4.717   4.742   4.750   4.761   4.828
  4.855   4.860   4.869   4.873   4.877   4.880   4.887   4.895
  4.896   4.899   4.950   4.956   4.966   4.967   4.970   4.973
  4.980   4.989   5.008   5.011   5.166   5.166   5.172   5.181
  5.183   5.188   5.197   5.206   5.297   5.308   5.321   5.327
  5.340   5.356
 --------------------------------------------------------------
 
          Ground-State Mulliken Net Atomic Charges

     Atom                 Charge (a.u.)
  ----------------------------------------
      1 O                    -0.454295
      2 C                    -0.093103
      3 H                     0.130571
      4 H                     0.137724
      5 H                     0.128095
      6 O                    -0.494168
      7 C                     0.603275
      8 C                    -0.269762
      9 H                     0.139872
     10 H                     0.134388
     11 C                    -0.165028
     12 H                     0.131643
     13 H                     0.118113
     14 C                    -0.213298
     15 H                     0.104154
     16 H                     0.102059
     17 C                     0.019465
     18 C                     0.085777
     19 C                    -0.135012
     20 H                     0.087666
     21 C                    -0.092730
     22 H                     0.097337
     23 C                    -0.077262
     24 H                     0.090844
     25 C                    -0.082682
     26 H                     0.086918
     27 C                    -0.094484
     28 H                     0.090336
     29 C                    -0.010441
     30 C                     0.000465
     31 C                    -0.009520
     32 C                    -0.053530
     33 C                     0.013858
     34 C                    -0.011092
     35 C                    -0.002725
     36 C                     0.018786
     37 C                    -0.021316
     38 C                    -0.004475
     39 C                    -0.083059
     40 C                     0.027530
     41 C                    -0.001350
     42 C                    -0.025197
     43 C                     0.017622
     44 C                     0.022075
     45 C                    -0.082165
     46 C                     0.054820
     47 C                    -0.005069
     48 C                     0.018039
     49 C                    -0.024635
     50 C                     0.016130
     51 C                     0.008488
     52 C                     0.031876
     53 C                     0.027493
     54 C                    -0.003491
     55 C                     0.033397
     56 C                     0.002999
     57 C                    -0.007110
     58 C                     0.030602
     59 C                    -0.022387
     60 C                     0.025557
     61 C                    -0.012528
     62 C                    -0.014407
     63 C                     0.014578
     64 C                    -0.010976
     65 C                    -0.026164
     66 C                     0.001618
     67 C                    -0.005991
     68 C                     0.012529
     69 C                    -0.002495
     70 C                    -0.013548
     71 C                     0.009222
     72 C                    -0.021750
     73 C                    -0.013303
     74 C                    -0.017399
     75 C                    -0.006485
     76 C                     0.006604
     77 C                     0.004276
     78 C                    -0.004076
     79 C                    -0.001748
     80 C                     0.020072
     81 C                    -0.025364
     82 C                     0.009355
     83 C                    -0.019847
     84 C                     0.011926
     85 C                     0.021002
     86 C                     0.007940
     87 C                     0.004801
     88 C                    -0.026317
     89 O                    -0.471477
     90 C                    -0.090716
     91 H                     0.129557
     92 H                     0.133607
     93 H                     0.134449
     94 O                    -0.473174
     95 C                     0.604163
     96 C                    -0.267022
     97 H                     0.142463
     98 H                     0.126109
     99 C                    -0.169437
    100 H                     0.134393
    101 H                     0.102332
    102 C                    -0.195689
    103 H                     0.101985
    104 H                     0.105151
    105 C                     0.014864
    106 C                     0.086271
    107 C                    -0.106093
    108 H                     0.128993
    109 C                    -0.108889
    110 H                     0.090586
    111 C                    -0.086767
    112 H                     0.095663
    113 C                    -0.096533
    114 H                     0.088273
    115 C                    -0.102991
    116 H                     0.087873
    117 C                    -0.000747
    118 C                    -0.015949
    119 C                    -0.001898
    120 C                    -0.023342
    121 C                     0.001559
    122 C                     0.024388
    123 C                     0.014407
    124 C                    -0.002198
    125 C                     0.035311
    126 C                    -0.014727
    127 C                    -0.091062
    128 C                     0.008054
    129 C                    -0.029690
    130 C                     0.015396
    131 C                     0.002418
    132 C                     0.001169
    133 C                    -0.055359
    134 C                     0.003543
    135 C                     0.010744
    136 C                    -0.027162
    137 C                    -0.007328
    138 C                    -0.003472
    139 C                     0.001384
    140 C                     0.034441
    141 C                     0.022345
    142 C                    -0.007539
    143 C                     0.037136
    144 C                    -0.012642
    145 C                    -0.005387
    146 C                    -0.023574
    147 C                    -0.007501
    148 C                    -0.016248
    149 C                     0.034628
    150 C                    -0.027720
    151 C                     0.018687
    152 C                     0.020756
    153 C                    -0.021534
    154 C                    -0.023948
    155 C                    -0.020681
    156 C                     0.012659
    157 C                     0.022757
    158 C                     0.005097
    159 C                     0.000227
    160 C                     0.012831
    161 C                    -0.001077
    162 C                    -0.011559
    163 C                    -0.009848
    164 C                    -0.017419
    165 C                     0.009607
    166 C                    -0.005583
    167 C                    -0.001789
    168 C                     0.023165
    169 C                     0.017927
    170 C                    -0.010594
    171 C                     0.006578
    172 C                     0.001461
    173 C                     0.012199
    174 C                    -0.035799
    175 C                    -0.021997
    176 C                     0.006447
  ----------------------------------------
  Sum of atomic charges =     0.000000

 -----------------------------------------------------------------
                    Cartesian Multipole Moments
 -----------------------------------------------------------------
    Charge (ESU x 10^10)
                 0.0000
    Dipole Moment (Debye)
         X      -1.5682      Y      -1.3263      Z      -2.1986
       Tot       3.0086
    Quadrupole Moments (Debye-Ang)
        XX    -769.0417     XY      39.7182     YY    -805.8739
        XZ      -5.6707     YZ       8.4684     ZZ    -789.4646
    Octopole Moments (Debye-Ang^2)
       XXX    -427.9743    XXY     123.3228    XYY      -5.5310
       YYY     -51.8764    XXZ    -150.0152    XYZ     -77.9371
       YYZ     -78.4799    XZZ       7.0216    YZZ      51.1626
       ZZZ    -314.5258
    Hexadecapole Moments (Debye-Ang^3)
      XXXX -156499.1947   XXXY    3683.0825   XXYY  -32638.2302
      XYYY    2431.9342   YYYY  -42679.3747   XXXZ    -417.9320
      XXYZ    -613.7545   XYYZ      21.0488   YYYZ     331.5270
      XXZZ  -30724.4850   XYZZ    1339.4836   YYZZ  -10360.6260
      XZZZ     160.0715   YZZZ    -206.5049   ZZZZ  -24381.7387
 -----------------------------------------------------------------
Archival summary:
1\1\mn251\SP\ProcedureUnspecified\6-31G**\428\afmv_a\FriOct1207:18:262018FriOct1207:18:262018\0\\#,ProcedureUnspecified,6-31G**,\\0,1\C\C,1,1.39694\C,2,1.37829,1,126.405\C,3,1.36858,2,117.14,1,-133.6,0\C,4,1.37358,3,126.405,2,-6.73033,0\C,5,1.3661,4,123.714,3,143.05,0\C,6,1.37824,5,120.553,4,2.46834,0\C,2,1.39253,1,104.175,3,-143.696,0\C,8,1.35865,2,110.698,1,0.971587,0\C,9,1.36849,8,110.299,2,-0.0210028,0\C,10,1.37571,9,122.499,8,144.997,0\C,1,1.39977,2,120.584,3,0.19151,0\C,12,1.39086,1,120.83,2,133.526,0\C,13,1.37707,12,119.755,1,4.80359,0\C,11,1.40274,10,119.72,9,0.244541,0\C,15,1.3997,11,109.523,10,-137.498,0\C,16,1.37831,15,123.162,11,143.521,0\C,17,1.36604,16,115.178,15,-5.1173,0\C,18,1.39791,17,110.212,16,-143.685,0\C,19,1.39678,18,122.199,17,145.706,0\C,19,1.39926,18,104.861,17,5.42718,0\C,20,1.39959,19,118.92,18,2.38046,0\C,22,1.37946,20,106.793,19,-141.397,0\C,23,1.38066,22,112.75,20,-4.68058,0\C,24,1.39122,23,103.653,22,7.61078,0\C,25,1.3801,24,120.089,23,138.457,0\C,26,1.34644,25,123.519,24,1.49577,0\C,27,1.39763,26,106.604,25,-144.475,0\C,23,1.40202,22,118.435,20,146.18,0\C,22,1.40339,20,120.871,19,2.49517,0\C,7,1.40493,6,118.473,5,-136.486,0\C,31,1.39761,7,110.657,6,137.226,0\C,7,1.40588,6,120.528,5,-6.19851,0\C,33,1.40443,7,111.403,6,-138.682,0\C,34,1.39668,33,117.665,7,142.778,0\C,35,1.3656,34,120.711,33,3.42682,0\C,21,1.40698,19,110.794,18,-4.54498,0\C,18,1.40908,17,123.351,16,6.82263,0\C,38,1.39694,18,121.724,17,-3.6844,0\C,9,1.41184,8,122.234,2,150.233,0\C,29,1.41313,23,122.326,22,-1.11676,0\C,41,1.39586,29,119.028,23,3.30392,0\C,41,1.40687,29,107.02,23,-142.061,0\C,16,1.41433,15,107.783,11,-1.79304,0\C,44,1.39553,16,119.757,15,142.145,0\C,45,1.39531,44,120.399,16,-135.618,0\C,46,1.38472,45,108.347,44,143.426,0\C,47,1.38602,46,108.098,45,2.71803,0\C,48,1.38163,47,108.18,46,-2.29688,0\C,47,1.39215,46,119.336,45,-144.274,0\C,50,1.36996,47,121.632,46,1.83278,0\C,50,1.38413,47,117.119,46,137.438,0\C,46,1.39702,45,121.433,44,-3.3091,0\C,33,1.42319,7,116.648,6,9.27904,0\C,54,1.41921,33,118.35,7,-147.146,0\C,51,1.42436,50,120.018,47,-8.66689,0\C,28,1.42508,27,110.591,26,-5.72344,0\C,57,1.40496,28,105.537,27,0.860179,0\C,3,1.48578,2,119.293,1,6.54343,0\C,59,1.5241,3,128.189,2,62.994,0\C,60,1.48121,59,61.1423,3,-100.596,0\C,60,1.49015,59,124.1,3,158.162,0\C,62,1.41331,60,116.818,59,150.911,0\H,63,1.08561,62,121.679,60,1.70561,0\C,63,1.36034,62,121.429,60,-172.723,0\H,65,1.0858,63,120.19,62,174.31,0\C,65,1.39769,63,123.479,62,-6.06887,0\H,67,1.08543,65,114.408,63,-179.475,0\C,67,1.40415,65,118.611,63,0.416685,0\H,69,1.08664,67,123.755,65,174.983,0\C,62,1.42412,60,128.115,59,-32.4366,0\H,71,1.08659,62,116.724,60,4.1127,0\C,60,1.59951,59,118.121,3,9.59361,0\H,73,1.09627,60,112.819,59,-29.0387,0\H,73,1.09728,60,107.784,59,-133.751,0\C,73,1.5378,60,118.392,59,106.144,0\H,76,1.09709,73,100.413,60,54.2507,0\H,76,1.09791,73,112.211,60,172.119,0\C,76,1.54423,73,108.524,60,-62.8813,0\H,79,1.09731,76,111.669,73,56.6545,0\H,79,1.09732,76,112.724,73,-66.6744,0\C,79,1.50442,76,108.594,73,160.81,0\O,82,1.23646,79,124.231,76,7.97882,0\O,82,1.31769,79,111.338,76,-163.131,0\C,84,1.46167,82,122.856,79,168.117,0\H,85,1.09639,84,113.714,82,-67.9773,0\H,85,1.09706,84,111.439,82,169.371,0\H,85,1.0971,84,110.501,82,46.9814,0\C,10,3.51383,9,128.146,8,-104.337,0\C,89,1.41199,10,123.368,9,-136.264,0\C,89,1.41333,10,78.6643,9,-35.2714,0\C,91,1.38597,89,118.92,10,94.7111,0\C,92,1.37646,91,120.562,89,-1.21056,0\C,93,1.36823,92,109.179,91,148.164,0\C,92,1.3784,91,120.847,89,139.817,0\C,94,1.41009,93,108.444,92,-2.58154,0\C,96,1.377,94,120.784,93,-137.627,0\C,97,1.40392,96,121.747,94,-1.25714,0\C,98,1.40572,97,109.376,96,148.853,0\C,99,1.39599,98,116.12,97,-133.657,0\C,90,1.41472,89,106.667,10,89.7881,0\C,101,1.32589,90,112.672,89,-3.17068,0\C,100,1.41592,99,121.157,98,-12.9755,0\C,103,1.37435,100,121.256,99,5.68812,0\C,103,1.38,100,109.668,99,153.125,0\C,104,1.38111,103,119.265,100,3.11003,0\C,104,1.40078,103,120.478,100,135.643,0\C,107,1.41289,104,120.761,103,9.97913,0\C,108,1.38521,107,118.663,104,-139.656,0\C,108,1.4086,107,117.488,104,-7.32868,0\C,89,1.41601,10,97.5912,9,87.8953,0\C,111,1.40183,89,115.829,10,-84.1528,0\C,107,1.41926,104,109.268,103,-137.417,0\C,113,1.36077,107,108.875,104,-2.07311,0\C,113,1.39461,107,116.727,104,146.283,0\C,115,1.36633,113,124.613,107,0.944575,0\C,116,1.41971,115,106.389,113,-138.137,0\C,117,1.40808,116,122.157,115,137.291,0\C,118,1.40625,117,119.705,116,-0.880378,0\C,118,1.40844,117,119.987,116,-139.864,0\C,120,1.39776,118,110.268,117,144.304,0\C,121,1.39198,120,124.677,118,-142.445,0\C,122,1.40243,121,123.96,120,138.111,0\C,123,1.37766,122,108.107,121,-138.582,0\C,119,1.41471,118,119.178,117,0.759139,0\C,125,1.3999,119,115.95,118,-136.954,0\C,126,1.41521,125,121.494,119,-3.7451,0\C,127,1.41279,126,117.854,125,138.501,0\C,128,1.379,127,123.173,126,2.75161,0\C,129,1.39634,128,120.568,127,-141.379,0\C,130,1.40235,129,122.128,128,-3.62617,0\C,128,1.41094,127,107.62,126,-140.833,0\C,132,1.3827,128,121.071,127,145.699,0\C,133,1.34416,132,121.873,128,-144.189,0\C,132,1.39654,128,109.176,127,-4.40842,0\C,135,1.39541,132,106.529,128,6.41212,0\C,136,1.40332,135,120.519,132,134.838,0\C,134,1.40591,133,110.052,132,147.486,0\C,138,1.38961,134,117.426,133,-130.561,0\C,139,1.39357,138,120.771,134,130.154,0\C,140,1.396,139,106.349,138,-150.407,0\C,141,1.34694,140,108.51,139,4.59957,0\C,142,1.36952,141,110.555,140,-7.54817,0\C,143,1.39954,142,116.772,141,142.337,0\C,144,1.40789,143,120.627,142,2.71418,0\C,140,1.43158,139,125.591,138,3.00979,0\C,146,1.49381,140,119.516,139,1.58038,0\C,147,1.46089,146,128.457,140,67.0038,0\C,148,1.49206,147,119.683,146,148.1,0\C,149,1.39429,148,120.546,147,-45.0769,0\H,150,1.08546,149,117.12,148,-5.8235,0\C,150,1.36964,149,119.778,148,178.973,0\H,152,1.08615,150,121.88,149,175.101,0\C,149,1.40618,148,119.381,147,132.864,0\H,154,1.08581,149,121.624,148,5.72215,0\C,154,1.421,149,120.161,148,-174.932,0\H,156,1.08586,154,116.747,149,-177.102,0\C,156,1.42263,154,119.871,149,-7.3869,0\H,158,1.08575,156,116.248,154,176.688,0\C,131,1.49681,130,121.328,129,146.757,0\C,148,1.53587,147,116.095,146,10.429,0\H,161,1.09656,148,114.097,147,-58.9012,0\H,161,1.09781,148,101.871,147,-162.303,0\C,161,1.53783,148,117.233,147,78.4894,0\H,164,1.09673,161,114.259,148,23.2109,0\H,164,1.09773,161,105.818,148,146.142,0\C,164,1.56154,161,109.739,148,-106.007,0\H,167,1.09669,164,110.671,161,-2.93558,0\H,167,1.09679,164,113.098,161,-129.327,0\C,167,1.53461,164,112.412,161,111.571,0\O,170,1.20548,167,123.25,164,-9.88728,0\O,170,1.35238,167,109.666,164,174.886,0\C,172,1.45839,170,121.937,167,-166.876,0\H,173,1.09592,172,109.595,170,57.1257,0\H,173,1.09689,172,114.805,170,-173.218,0\H,173,1.09711,172,105.671,170,-59.9202,0\\\@

 Total job time:  846.35s(wall), 8129.75s(cpu) 
 Fri Oct 12 07:18:26 2018

        *************************************************************
        *                                                           *
        *  Thank you very much for using Q-Chem.  Have a nice day.  *
        *                                                           *
        *************************************************************


