
Running Job 1 of 1 ./7/26.qcin
qchem ./7/26.qcin_28293.0 /tmpu/cab_g/afmv_a/scratch_qchem/qchem28293/ 1
/tmpu/appuserlic/qchem4.4/serial-multicore/exe/qcprog.exe_s ./7/26.qcin_28293.0 /tmpu/cab_g/afmv_a/scratch_qchem/qchem28293/
Check license passed

                  Welcome to Q-Chem
     A Quantum Leap Into The Future Of Chemistry


 Q-Chem 4.4, Q-Chem, Inc., Pleasanton, CA (2016)

 Y. Shao,  Z. Gan,  E. Epifanovsky,  A. T. B. Gilbert,  M. Wormit,  
 J. Kussmann,  A. W. Lange,  A. Behn,  J. Deng,  X. Feng,  D. Ghosh,  
 M. Goldey,  P. R. Horn,  L. D. Jacobson,  I. Kaliman,  F. Rob,  
 R. Z. Khaliullin,  T. Kus,  A. Landau,  J. Liu,  E. I. Proynov,  Y. M. Rhee,  
 R. M. Richard,  M. A. Rohrdanz,  R. P. Steele,  E. J. Sundstrom,  
 H. L. Woodcock III,  P. M. Zimmerman,  D. Zuev,  B. Albrecht,  E. Alguire,  
 B. Austin,  S. A. Baeppler,  G. J. O. Beran,  Y. A. Bernard,  E. Berquist,  
 K. Brandhorst,  K. B. Bravaya,  S. T. Brown,  D. Casanova,  C.-M. Chang,  
 Y. Chen,  S. H. Chien,  K. D. Closser,  M. P. Coons,  D. L. Crittenden,  
 S. Dasgupta,  M. Diedenhofen,  R. A. DiStasio Jr.,  H. Do,  A. D. Dutoi,  
 R. G. Edgar,  P.-T. Fang,  S. Fatehi,  Q. Feng,  L. Fusti-Molnar,  
 A. Ghysels,  A. Golubeva-Zadorozhnaya,  J. Gomes,  A. Gunina,  
 M. W. D. Hanson-Heine,  P. H. P. Harbach,  A. W. Hauser,  J. E. Herr,  
 E. G. Hohenstein,  Z. C. Holden,  K. Hui,  T.-C. Jagau,  H. Ji,  B. Kaduk,  
 K. Khistyaev,  Jaehoon Kim,  Jihan Kim,  R. A. King,  P. Klunzinger,  
 K. Koh,  D. Kosenkov,  T. Kowalczyk,  C. M. Krauter,  A. Kunitsa,  
 K. U. Lao,  A. Laurent,  K. V. Lawler,  J. Lee,  D. Lefrancois,  S. Lehtola,  
 S. V. Levchenko,  C. Y. Lin,  Y.-S. Lin,  F. Liu,  E. Livshits,  
 R. C. Lochan,  A. Luenser,  P. Manohar,  S. F. Manzer,  S.-P. Mao,  Y. Mao,  
 N. Mardirossian,  A. V. Marenich,  L. A. Martinez-Martinez,  S. A. Maurer,  
 N. J. Mayhall,  J.-M. Mewes,  A. F. Morrison,  K. Nanda,  T. S. Nguyen-Beck,  
 C. M. Oana,  R. Olivares-Amaya,  D. P. O'Neill,  J. A. Parkhill,  
 T. M. Perrine,  R. Peverati,  P. A. Pieniazek,  F. Plasser,  A. Prociuk,  
 D. R. Rehn,  E. Rosta,  N. J. Russ,  N. Sergueev,  S. M. Sharada,  
 S. Sharma,  D. W. Small,  A. Sodt,  T. Stauch,  T. Stein,  D. Stuck,  
 Y.-C. Su,  A. J. W. Thom,  T. Tsuchimochi,  L. Vogt,  O. Vydrov,  T. Wang,  
 M. A. Watson,  J. Wenzel,  A. White,  C. F. Williams,  V. Vanovschi,  
 K. Yao,  S. Yeganeh,  S. R. Yost,  Z.-Q. You,  I. Y. Zhang,  X. Zhang,  
 Y. Zhao,  B. R. Brooks,  G. K. L. Chan,  D. M. Chipman,  C. J. Cramer,  
 W. A. Goddard III,  M. S. Gordon,  W. J. Hehre,  A. Klamt,  
 H. F. Schaefer III,  M. W. Schmidt,  C. D. Sherrill,  D. G. Truhlar,  
 A. Warshel,  X. Xu,  A. Aspuru-Guzik,  R. Baer,  A. T. Bell,  N. A. Besley,  
 J.-D. Chai,  A. Dreuw,  B. D. Dunietz,  T. R. Furlani,  S. R. Gwaltney,  
 C.-P. Hsu,  Y. Jung,  J. Kong,  D. S. Lambrecht,  W. Liang,  C. Ochsenfeld,  
 V. A. Rassolov,  L. V. Slipchenko,  J. E. Subotnik,  T. Van Voorhis,  
 J. M. Herbert,  A. I. Krylov,  P. M. W. Gill,  M. Head-Gordon

 Contributors to earlier versions of Q-Chem not listed above: 
 R. D. Adamson,  J. Baker,  E. F. C. Byrd,  A. K. Chakraborty,  C.-L. Cheng,  
 H. Dachsel,  R. J. Doerksen,  G. Hawkins,  A. Heyden,  S. Hirata,  
 G. Kedziora,  F. J. Keil,  C. Kelley,  P. P. Korambath,  W. Kurlancheek,  
 A. M. Lee,  M. S. Lee,  D. Liotard,  I. Lotan,  P. E. Maslen,  N. Nair,  
 D. Neuhauser,  R. Olson,  B. Peters,  J. Ritchie,  N. E. Schultz,  
 N. Shenvi,  A. C. Simmonett,  K. S. Thanthiriwatte,  Q. Wu,  W. Zhang

 Please cite Q-Chem as follows:
 Y. Shao et al., Mol. Phys. 113, 184-215 (2015)
 DOI: 10.1080/00268976.2014.952696

 Q-Chem 4.4.2 for Intel X86 Linux

 Parts of Q-Chem use Armadillo 5.200.1 (Boston Tea Smuggler).
 http://arma.sourceforge.net/

 Q-Chem begins on Fri Oct 12 07:18:27 2018  

Host: 
0

     Scratch files written to /tmpu/cab_g/afmv_a/scratch_qchem/qchem28293//
 Dec716 11556_ 22328  22283 4050   
Processing $rem in /tmpu/appuserlic/qchem4.4/serial-multicore/config/preferences.
 MEM_TOTAL  2000 
FILE_GEOM_ORG=        593

Checking the input file for inconsistencies... 	...done.

--------------------------------------------------------------
User input:
--------------------------------------------------------------
$comment
SP
$end

$rem
MEM_STATIC 5000
MEM_TOTAL 20000
JOBTYPE SP
EXCHANGE B3LYP
BASIS 6-31g(d,p)
$end

$molecule
0 1
O         -12.289000      3.523000     -2.592000
C         -10.869000      3.289000     -2.868000
H         -10.470000      2.576000     -2.136000
H         -10.287000      4.218000     -2.850000
H         -10.806000      2.879000     -3.884000
O         -12.826000      1.274000     -2.577000
C         -13.122000      2.441000     -2.446000
C         -14.543000      2.865000     -2.264000
H         -15.225000      2.006000     -2.249000
H         -14.877000      3.457000     -3.126000
C         -14.787000      3.702000     -1.087000
H         -14.415000      3.221000     -0.174000
H         -14.266000      4.654000     -1.248000
C         -16.306000      3.901000     -0.865000
H         -16.854000      3.991000     -1.811000
H         -16.737000      2.999000     -0.414000
C         -16.560000      5.148000     -0.026000
C         -16.254000      4.886000      1.442000
C         -17.189000      4.143000      2.238000
H         -18.185000      3.907000      1.875000
C         -16.897000      3.887000      3.582000
H         -17.572000      3.297000      4.194000
C         -15.690000      4.273000      4.148000
H         -15.510000      4.032000      5.192000
C         -14.781000      5.030000      3.415000
H         -13.907000      5.524000      3.828000
C         -15.022000      5.254000      2.001000
H         -14.284000      5.785000      1.408000
C         -19.733000      9.584000      0.955000
C         -17.470000     10.363000      1.261000
C         -17.410000     12.954000     -2.519000
C         -20.286000      7.236000     -3.507000
C         -15.676000     10.489000     -4.305000
C         -18.426000      9.360000      1.389000
C         -18.495000      8.544000     -5.313000
C         -19.191000     12.543000     -0.883000
C         -14.978000      8.468000     -1.001000
C         -18.994000      6.748000     -3.777000
C         -16.328000      6.508000     -0.691000
C         -15.046000      7.782000     -2.194000
C         -16.824000      7.180000     -4.310000
C         -17.576000      9.583000     -5.431000
C         -16.374000      8.462000      0.866000
C         -17.614000     11.889000     -4.496000
C         -17.696000      6.103000     -0.362000
C         -18.663000      6.092000     -1.469000
C         -16.271000     11.731000     -4.078000
C         -21.152000     10.581000     -3.017000
C         -19.686000     12.345000     -3.237000
C         -20.075000     12.284000     -1.910000
C         -19.213000     11.765000      0.283000
C         -19.856000      6.652000     -1.148000
C         -15.656000      7.742000     -0.039000
C         -17.911000     11.554000      0.647000
C         -18.135000      7.378000     -4.657000
C         -16.185000      9.843000      1.023000
C         -14.960000      8.558000     -3.388000
C         -21.377000      8.455000     -1.881000
C         -17.846000     12.878000     -1.157000
C         -15.901000      6.628000     -2.144000
C         -21.037000     10.473000     -0.573000
C         -15.894000      8.256000     -4.416000
C         -14.779000      9.856000     -0.943000
C         -19.576000     10.464000     -4.828000
C         -19.749000      9.062000     -4.943000
C         -14.707000     10.611000     -2.086000
C         -20.665000      7.231000     -2.136000
C         -18.182000      6.186000     -2.766000
C         -21.348000      9.190000     -3.106000
C         -18.402000      7.061000      0.571000
C         -15.775000     11.795000     -0.554000
C         -16.844000      6.407000     -3.129000
C         -14.810000      9.957000     -3.306000
C         -21.179000      9.109000     -0.683000
C         -16.152000     12.433000     -2.844000
C         -20.194000     10.800000      0.488000
C         -18.321000     12.691000     -3.539000
C         -15.364000     10.582000      0.088000
C         -15.367000     11.829000     -1.881000
C         -17.729000      8.156000      1.210000
C         -19.679000      7.321000      0.016000
C         -20.305000     11.269000     -3.894000
C         -17.038000     12.292000     -0.190000
C         -16.256000      9.438000     -4.979000
C         -20.719000      8.471000     -4.081000
C         -18.247000     10.807000     -5.180000
C         -20.343000      8.560000      0.257000
C         -21.004000     11.222000     -1.815000
O          -9.246000     14.286000     10.883000
C         -10.355000     15.157000     11.255000
H          -9.977000     16.164000     11.465000
H         -11.012000     14.757000     12.037000
H         -11.006000     15.201000     10.373000
O          -8.647000     15.341000      8.942000
C          -8.428000     14.573000      9.845000
C          -7.187000     13.672000      9.901000
H          -7.601000     12.672000      9.724000
H          -6.798000     13.778000     10.921000
C          -6.137000     14.036000      8.804000
H          -6.275000     15.035000      8.373000
H          -5.207000     13.975000      9.384000
C          -6.058000     12.905000      7.765000
H          -5.008000     12.734000      7.494000
H          -6.257000     11.906000      8.171000
C          -6.700000     13.164000      6.394000
C          -6.026000     14.295000      5.692000
C          -6.531000     15.591000      5.789000
H          -7.364000     15.748000      6.467000
C          -5.912000     16.614000      5.121000
H          -6.228000     17.647000      5.234000
C          -4.759000     16.421000      4.298000
H          -4.307000     17.164000      3.648000
C          -4.308000     15.082000      4.132000
H          -3.411000     14.833000      3.573000
C          -4.898000     14.037000      4.893000
H          -4.448000     13.050000      4.845000
C         -11.570000     13.934000      3.948000
C         -10.270000     12.932000      2.213000
C         -12.338000      8.923000      2.209000
C         -11.443000     11.047000      8.112000
C          -9.845000      7.324000      4.176000
C         -10.355000     13.721000      3.342000
C         -11.209000      8.395000      7.350000
C         -13.307000     11.194000      2.387000
C          -7.489000     10.485000      3.801000
C         -10.154000     10.390000      8.133000
C          -7.278000     12.020000      5.617000
C          -7.362000      9.713000      4.894000
C          -8.812000      8.882000      7.179000
C         -11.182000      7.595000      6.293000
C          -8.297000     12.710000      3.409000
C         -12.293000      7.653000      4.110000
C          -8.154000     13.037000      6.331000
C          -9.084000     12.486000      7.362000
C         -11.054000      7.446000      3.497000
C         -14.114000     10.786000      5.795000
C         -13.938000      9.448000      3.966000
C         -14.098000     10.777000      3.493000
C         -12.674000     12.426000      2.370000
C         -10.417000     13.053000      7.255000
C          -7.443000     11.869000      4.137000
C         -11.431000     12.258000      1.729000
C         -10.043000      9.108000      7.735000
C          -9.000000     12.264000      2.288000
C          -8.007000      8.424000      4.867000
C         -12.761000     12.499000      6.989000
C         -12.479000     10.243000      1.720000
C          -7.346000     10.513000      6.050000
C         -13.435000     12.807000      4.683000
C          -8.767000      8.023000      6.075000
C          -8.164000     10.051000      2.675000
C         -13.206000      8.608000      6.158000
C         -12.489000      9.042000      7.296000
C          -8.718000      8.772000      2.588000
C         -11.547000     12.404000      7.700000
C          -9.034000     11.092000      7.684000
C         -13.338000     11.259000      6.950000
C          -9.168000     13.799000      5.483000
C         -10.044000     10.227000      1.399000
C          -8.194000     10.152000      7.090000
C          -8.647000      7.920000      3.756000
C         -12.816000     13.284000      5.797000
C         -11.080000      8.266000      2.323000
C         -12.703000     13.219000      3.539000
C         -13.081000      8.526000      3.335000
C          -8.933000     10.943000      1.898000
C          -9.912000      8.904000      1.878000
C          -9.167000     13.595000      4.102000
C         -10.430000     13.851000      6.100000
C         -14.056000      9.444000      5.394000
C         -11.293000     10.891000      1.355000
C          -9.935000      7.387000      5.613000
C         -12.561000     10.376000      7.665000
C         -12.382000      7.639000      5.545000
C         -11.641000     13.962000      5.327000
C         -14.096000     11.582000      4.597000
$end

--------------------------------------------------------------
 ----------------------------------------------------------------
             Standard Nuclear Orientation (Angstroms)
    I     Atom           X                Y                Z
 ----------------------------------------------------------------
    1      O       4.0159618628    -5.9654727867     3.2904088294
    2      C       3.2796973141    -6.6324869266     4.3675989944
    3      H       2.7527655023    -7.5044253766     3.9608309953
    4      H       2.5717116422    -5.9573156681     4.8625626901
    5      H       4.0209531457    -6.9406665939     5.1158570280
    6      O       5.0853795331    -7.8966671181     2.6023468403
    7      C       4.8406140708    -6.7160440056     2.4888350142
    8      C       5.5787114027    -5.8615170452     1.5105012252
    9      H       6.3129940525    -6.4408249883     0.9373857943
   10      H       6.1823719677    -5.1122915093     2.0390076287
   11      C       4.7254187681    -5.1079177043     0.5888647931
   12      H       4.0275464916    -5.7706229018     0.0624523057
   13      H       4.1683198108    -4.3736672744     1.1839976002
   14      C       5.5764356954    -4.4355041321    -0.5156152554
   15      H       6.5407380925    -4.0775491023    -0.1344209696
   16      H       5.8678498188    -5.1806917502    -1.2656414033
   17      C       4.8198853511    -3.2617061040    -1.1265782376
   18      C       3.7406292277    -3.7501787301    -2.0825618743
   19      C       4.1099199393    -4.2110699458    -3.3906496609
   20      H       5.1114913910    -4.0651247133    -3.7843952847
   21      C       3.1186439883    -4.6773635720    -4.2607520935
   22      H       3.3779289912    -5.0639432031    -5.2413623504
   23      C       1.7920445247    -4.7725275429    -3.8641683292
   24      H       1.0678323386    -5.1586277929    -4.5761095533
   25      C       1.3957455394    -4.2958638062    -2.6182318155
   26      H       0.3658209159    -4.1639319169    -2.3014823142
   27      C       2.4068046867    -3.8698971569    -1.6674611732
   28      H       2.1099165673    -3.5614958280    -0.6699642734
   29      C       5.0022104000     1.8634074464    -3.2261864564
   30      C       2.9855898820     1.8091797172    -1.9025750936
   31      C       4.5734959163     4.5809992412     1.3838898693
   32      C       9.0065863563     0.2736064598    -0.5492734911
   33      C       5.2942617384     1.8616855014     3.4716174412
   34      C       3.8826719104     1.1754751369    -2.7569703998
   35      C       8.5170812681     1.0753404383     2.1521684196
   36      C       4.8845114506     4.6333813918    -1.0487842658
   37      C       3.3077199040    -0.5830449115     1.1125910004
   38      C       8.4351803276    -0.5894443938     0.4041133006
   39      C       4.6615368350    -2.0000951620    -0.2728144655
   40      C       4.3410663711    -1.0893593679     1.8704232710
   41      C       7.1342276301    -0.8576540565     2.2521389108
   42      C       7.6279888709     1.7541975115     2.9808262399
   43      C       3.0745607558    -0.3015197343    -1.1897819898
   44      C       6.3269287653     3.8397797919     2.5923752735
   45      C       5.5278204771    -1.9547438819    -1.4522999096
   46      C       6.9193637797    -1.5362097236    -1.2307251022
   47      C       5.1719773665     3.2032548687     3.1064378071
   48      C       8.2432421736     3.6525491939    -0.9725141531
   49      C       6.8120449126     4.8384543875     0.3893064195
   50      C       6.2444080643     4.7839810269    -0.8719596355
   51      C       4.3904658272     3.7994488150    -2.0616018108
   52      C       7.3663494965    -0.6435738767    -2.1490360592
   53      C       3.3856042543    -1.1296876278    -0.1552101546
   54      C       3.3155581435     3.1320823370    -1.5406253665
   55      C       8.2084908161    -0.2011026552     1.7106291097
   56      C       2.4084157165     0.9153917816    -0.9826391672
   57      C       4.8093016459    -0.2759841951     2.9448461652
   58      C       8.3326709936     1.6251581096    -2.2926220568
   59      C       4.0206508933     4.5247959370     0.0639960974
   60      C       5.2656404746    -1.8909085061     1.1168168046
   61      C       6.6179385723     3.2787507413    -2.7660268854
   62      C       6.2181216580    -0.1489215168     3.0842206586
   63      C       2.6963892193     0.6465768037     1.4020978769
   64      C       8.3535610915     3.1902281646     1.3836002333
   65      C       8.9880232070     1.9442591368     1.1517015358
   66      C       3.1479995807     1.4400467692     2.4258710429
   67      C       8.3859951928     0.2640942207    -1.8291497058
   68      C       7.3932534228    -1.4843754294     0.0712533201
   69      C       8.8734569422     2.4220825131    -1.2370875700
   70      C       5.1156786419    -0.9100778459    -2.4649701328
   71      C       2.5297975654     2.7601041946     0.7631086840
   72      C       6.6275299212    -1.6890024570     1.2299807681
   73      C       4.2131060669     0.9780106905     3.1866573696
   74      C       7.2156808945     2.0575891997    -2.9763328662
   75      C       4.0716356073     3.7036210678     2.3523803294
   76      C       5.2432693926     3.2023479406    -2.9845360579
   77      C       5.9489102350     4.7361902985     1.5376467803
   78      C       2.2095117205     1.4239030398     0.3575998043
   79      C       3.0926841751     2.7829155896     2.0324342155
   80      C       3.8910523635    -0.1691070476    -2.3576027530
   81      C       6.2812341880    -0.1868091268    -2.8181225488
   82      C       8.0047698052     4.0989992721     0.3327426251
   83      C       3.0174657203     3.6129091235    -0.2416686664
   84      C       6.4629936306     1.1342840617     3.4564546714
   85      C       9.2913406394     1.6312679375    -0.2059655973
   86      C       7.5487224247     3.1019581226     2.5464575419
   87      C       6.1988534371     1.1736391188    -3.2382320380
   88      C       7.1625342124     4.0890970612    -1.6929898726
   89      O     -10.1842217537     1.8209225809    -3.3732594873
   90      C      -9.9261904892     2.9722747244    -4.2304141456
   91      H     -10.6407643187     3.7702962883    -3.9989431417
   92      H      -9.8488735366     2.7415745749    -5.2999806606
   93      H      -8.9171466516     3.3153448854    -3.9700405708
   94      O      -9.6777707126     2.7962458486    -1.3653852715
   95      C     -10.1727002115     1.9164361251    -2.0243038109
   96      C     -10.7897114630     0.6518856947    -1.4117457937
   97      H     -10.0736081370    -0.1307155295    -1.6900556038
   98      H     -11.7526822119     0.5237188582    -1.9208799595
   99      C     -10.9256413890     0.7478132841     0.1409054720
  100      H     -10.8645093455     1.7719889426     0.5283755919
  101      H     -11.9283396018     0.3245976442     0.2841039914
  102      C      -9.9544896643    -0.2396272800     0.8092979166
  103      H     -10.4563100299    -0.7245296203     1.6567812740
  104      H      -9.7649917404    -1.1489118487     0.2264342019
  105      C      -8.7031874349     0.3489019190     1.4777005740
  106      C      -9.0733277442     1.2517640805     2.6064507983
  107      C      -9.1911726797     2.6263826970     2.4049905538
  108      H      -9.0989232603     2.9867282482     1.3852537601
  109      C      -9.5111360870     3.4430697915     3.4569219240
  110      H      -9.6883216783     4.5064340933     3.3243488195
  111      C      -9.7210507297     2.9560345171     4.7845963887
  112      H      -9.8486182287     3.5641724576     5.6749602349
  113      C      -9.5075617383     1.5657285133     4.9975509998
  114      H      -9.6923724865     1.0863449851     5.9541739246
  115      C      -9.2609658211     0.7098208082     3.8903660766
  116      H      -9.2334428458    -0.3613649508     4.0657985577
  117      C      -3.9758371235     2.9309844328     0.3473356220
  118      C      -3.4449792966     1.7236005935     2.3384768104
  119      C      -0.7459660973    -1.3451539729     0.4288186838
  120      C      -5.8491203533    -0.2176216533    -3.1550754982
  121      C      -3.2499108758    -3.8652684107     0.2866119113
  122      C      -4.3628286515     2.3837090969     1.5471511344
  123      C      -4.6876795164    -2.7096692194    -2.8245333513
  124      C      -0.8991515599     1.0909093881     0.0162468534
  125      C      -5.6384151605    -1.6515637135     2.5400183983
  126      C      -6.5534531313    -1.2660294749    -2.4491240995
  127      C      -7.4401218931    -0.4565113522     1.5279390023
  128      C      -6.1908452375    -2.5226150907     1.6781294795
  129      C      -6.3977288790    -3.0367576268    -1.0980446165
  130      C      -3.7725467417    -3.3676292034    -2.1262506979
  131      C      -5.5208909230     0.7422235556     2.6545765237
  132      C      -1.6072088215    -2.7332409311    -1.1712443045
  133      C      -7.6109844974     0.7212110580     0.5817694113
  134      C      -7.4572432537     0.4161875439    -0.8724610676
  135      C      -2.0082580975    -3.2822307250     0.0500290819
  136      C      -2.4117237114     0.6512125437    -3.1382688260
  137      C      -0.9326783955    -0.4870431411    -1.8408637429
  138      C      -0.9326175196     0.8579600143    -1.3864008639
  139      C      -1.7150535162     2.0365495023     0.6153050910
  140      C      -6.6384965822     1.4031237850    -1.5546910465
  141      C      -6.3216644620    -0.4012511278     2.5211284517
  142      C      -2.1130276868     1.5254793483     1.8661359577
  143      C      -5.9713758209    -2.4671604509    -2.2682390991
  144      C      -4.1675333831     0.6660468264     2.9898174447
  145      C      -5.3202837291    -3.5134864513     1.0962604163
  146      C      -4.6619430262     1.6915541501    -2.9265700371
  147      C      -0.7459635467    -0.0134003697     0.9061386397
  148      C      -7.1998642827    -1.8884932719     0.9322326466
  149      C      -2.7996051779     2.4262872746    -1.5632502014
  150      C      -5.4462440350    -3.7515514685    -0.3615201053
  151      C      -4.3050728645    -1.7253552180     2.8986409512
  152      C      -2.5948306647    -1.7291036003    -3.1602665054
  153      C      -3.9651492316    -1.6704819675    -3.5012643489
  154      C      -3.4621953791    -2.7314783796     2.4215668184
  155      C      -5.9362206819     1.1291012817    -2.7070131488
  156      C      -7.2628120303    -0.9385844626    -1.2922339939
  157      C      -3.8463111661     0.7250829782    -3.4488038379
  158      C      -6.5965688295     1.8555093478     0.6925495651
  159      C      -2.2277476280    -0.8104960655     2.6954056372
  160      C      -7.1685921216    -2.0435779809    -0.4483454152
  161      C      -3.9990277263    -3.6660415378     1.4553516589
  162      C      -4.0997188077     2.5602456555    -1.9419924644
  163      C      -1.4888208913    -2.3921227550     1.0446369396
  164      C      -2.6989666788     2.6778833743    -0.1700971965
  165      C      -0.8320258121    -1.5772873542    -0.9554651812
  166      C      -3.5477773349    -0.5577351617     3.1308496615
  167      C      -2.2140857353    -2.1411006080     2.2194866269
  168      C      -5.6409527771     1.7961708396     1.7084505946
  169      C      -6.1334800555     2.2664413023    -0.5694808293
  170      C      -1.7720107447    -0.5882042212    -2.9977611643
  171      C      -1.5385804485     0.2333267708     2.0333516476
  172      C      -4.1355571254    -3.9138087806    -0.8493073433
  173      C      -4.5719353585    -0.4308282787    -3.6276381121
  174      C      -2.4681048006    -2.8541308525    -2.3164891430
  175      C      -4.8262479804     2.8488363550    -0.7377998846
  176      C      -1.8998648233     1.5064255770    -2.1010826583
 ----------------------------------------------------------------
 Molecular Point Group                 C1    NOp =  1
 Largest Abelian Subgroup              C1    NOp =  1
 Nuclear Repulsion Energy = 34518.1784615365 hartrees
 There are      462 alpha and      462 beta electrons
 Requested basis set is 6-31G(d,p)
 There are 676 shells and 2360 basis functions

 Total QAlloc Memory Limit  20000 MB
 Mega-Array Size      4888 MB
 MEM_STATIC part      5000 MB
 A cutoff of  1.0D-08 yielded  37605 shell pairs
 There are    529372 function pairs
 
 -------------------------------------------------------
 OpenMP Integral Computing Module                       
 Release: version 1.0, May 2013, Q-Chem Inc. Pittsburgh 
 -------------------------------------------------------
 Integral Job Info:
 Integral job number is                      11
 Integral operator is                         1
 short-range coefficients                     0
 long-range coefficients              100000000
 Omega coefficients                           0
 if combine SR and LR in K                    0
 Integral screening is                        0
 Integral computing path is                   2
 max size of driver memory is            800000
 size of driver memory is                593474
 size of scratch memory is              2260544
 max col of scratch BK array               1296
 max len of scratch array in speh3          155
 max len of scratch index in speh4           18
 max int batch size is                      520
 min int batch size is                       52
 fixed nKL is                                52
 max L of basis functions is                  2
 order of int derivative is                   0
 number of shells is                        676
 number of basis is                        2360
 number of cartesian basis is              2360
 number of contracted shell pairs         37605
 number of primitive shell pairs         114064
 maxK2 (contraction) of shell pair           36
 max number of K2 of shell pair               1
 max number of CS2 of shell pair           7188
 max number of PS2 of shell pair          34680
 mem total for path MDJ                 1501336
 -------------------------------------------------------
 Smallest overlap matrix eigenvalue = 2.47E-04

 Scale SEOQF with 1.000000e-02/1.000000e-02/1.000000e-02

 Standard Electronic Orientation quadrupole field applied
 Nucleus-field energy     =     0.0000001170 hartrees
 Guess from superposition of atomic densities
 Warning:  Energy on first SCF cycle will be non-variational
 A restricted hybrid HF-DFT SCF calculation will be
 performed using Pulay DIIS extrapolation
 Exchange:     0.2000 Hartree-Fock + 0.0800 Slater + 0.7200 B88
 Correlation:  0.1900 VWN1RPA + 0.8100 LYP
 Using SG-1 standard quadrature grid
 SCF converges when DIIS error is below 1.0E-05
 using 16 threads for integral computing 
 -------------------------------------------------------
 OpenMP BLAS3 based DFT computing Module                
 Release: version 1.0, May 2013, Q-Chem Inc. Pittsburgh 
 -------------------------------------------------------
 ---------------------------------------
  Cycle       Energy         DIIS Error
 ---------------------------------------
    1   -5858.6611029541      1.83E-02
    2   -5803.1240085086      1.29E-03
    3   -5802.4473493464      1.74E-03
    4   -5803.9819156114      6.34E-04
    5   -5804.1920169597      3.11E-04
    6   -5804.2570554129      1.28E-04
    7   -5804.2681059042      4.31E-05
    8   -5804.2689188398      2.81E-05
    9   -5804.2694878900      7.84E-06 Convergence criterion met
 ---------------------------------------
 SCF time:  CPU 8266.50 s  wall 850.89 s
 SCF   energy in the final basis set = -5804.2694878900
 Total energy in the final basis set = -5804.2694878900
 
 --------------------------------------------------------------
 
                    Orbital Energies (a.u.)
 --------------------------------------------------------------
 
 Alpha MOs
 -- Occupied --
-19.194 -19.191 -19.143 -19.133 -10.320 -10.313 -10.253 -10.247
-10.242 -10.236 -10.235 -10.234 -10.233 -10.232 -10.230 -10.229
-10.226 -10.226 -10.225 -10.225 -10.223 -10.223 -10.223 -10.222
-10.221 -10.221 -10.221 -10.221 -10.221 -10.221 -10.220 -10.220
-10.219 -10.219 -10.219 -10.218 -10.218 -10.218 -10.218 -10.218
-10.217 -10.217 -10.217 -10.217 -10.217 -10.217 -10.216 -10.216
-10.216 -10.216 -10.216 -10.216 -10.216 -10.216 -10.216 -10.215
-10.215 -10.215 -10.215 -10.215 -10.215 -10.215 -10.215 -10.215
-10.214 -10.214 -10.214 -10.214 -10.214 -10.214 -10.214 -10.214
-10.214 -10.214 -10.213 -10.213 -10.213 -10.213 -10.213 -10.213
-10.213 -10.212 -10.212 -10.212 -10.212 -10.212 -10.212 -10.212
-10.212 -10.212 -10.212 -10.212 -10.212 -10.211 -10.211 -10.211
-10.211 -10.211 -10.211 -10.211 -10.211 -10.211 -10.210 -10.210
-10.210 -10.210 -10.210 -10.209 -10.209 -10.209 -10.209 -10.209
-10.209 -10.209 -10.209 -10.208 -10.208 -10.208 -10.208 -10.208
-10.206 -10.206 -10.206 -10.206 -10.205 -10.205 -10.204 -10.204
-10.203 -10.202 -10.202 -10.202 -10.202 -10.202 -10.200 -10.200
-10.199 -10.198 -10.198 -10.198 -10.197 -10.197 -10.197 -10.194
-10.192 -10.192 -10.190 -10.188  -1.098  -1.086  -1.022  -1.010
 -0.984  -0.981  -0.966  -0.965  -0.963  -0.962  -0.961  -0.959
 -0.934  -0.934  -0.928  -0.928  -0.925  -0.924  -0.923  -0.920
 -0.920  -0.918  -0.898  -0.895  -0.892  -0.888  -0.887  -0.883
 -0.876  -0.874  -0.851  -0.848  -0.843  -0.841  -0.838  -0.836
 -0.835  -0.835  -0.823  -0.818  -0.812  -0.803  -0.799  -0.796
 -0.795  -0.794  -0.794  -0.793  -0.791  -0.788  -0.788  -0.783
 -0.770  -0.770  -0.769  -0.768  -0.764  -0.763  -0.762  -0.761
 -0.749  -0.746  -0.742  -0.738  -0.735  -0.730  -0.717  -0.716
 -0.715  -0.714  -0.713  -0.711  -0.710  -0.710  -0.708  -0.707
 -0.706  -0.705  -0.705  -0.704  -0.702  -0.702  -0.673  -0.671
 -0.660  -0.657  -0.655  -0.654  -0.647  -0.643  -0.632  -0.631
 -0.629  -0.627  -0.624  -0.623  -0.621  -0.620  -0.616  -0.616
 -0.614  -0.614  -0.612  -0.612  -0.609  -0.608  -0.607  -0.605
 -0.604  -0.602  -0.601  -0.601  -0.566  -0.566  -0.563  -0.562
 -0.559  -0.559  -0.557  -0.556  -0.556  -0.555  -0.553  -0.551
 -0.538  -0.535  -0.532  -0.532  -0.528  -0.527  -0.526  -0.522
 -0.521  -0.520  -0.519  -0.517  -0.516  -0.514  -0.513  -0.511
 -0.505  -0.504  -0.503  -0.499  -0.496  -0.491  -0.487  -0.486
 -0.484  -0.483  -0.482  -0.481  -0.479  -0.478  -0.477  -0.475
 -0.474  -0.474  -0.471  -0.470  -0.469  -0.467  -0.466  -0.465
 -0.464  -0.463  -0.462  -0.461  -0.461  -0.460  -0.458  -0.457
 -0.454  -0.453  -0.451  -0.450  -0.450  -0.447  -0.445  -0.443
 -0.442  -0.441  -0.439  -0.438  -0.436  -0.436  -0.432  -0.431
 -0.431  -0.429  -0.427  -0.426  -0.426  -0.426  -0.424  -0.423
 -0.423  -0.422  -0.421  -0.421  -0.420  -0.419  -0.418  -0.417
 -0.417  -0.416  -0.416  -0.415  -0.414  -0.414  -0.411  -0.410
 -0.410  -0.409  -0.408  -0.408  -0.401  -0.401  -0.400  -0.396
 -0.394  -0.392  -0.390  -0.389  -0.389  -0.386  -0.384  -0.384
 -0.381  -0.378  -0.374  -0.370  -0.368  -0.367  -0.366  -0.364
 -0.363  -0.362  -0.361  -0.360  -0.360  -0.359  -0.359  -0.358
 -0.357  -0.356  -0.355  -0.354  -0.352  -0.351  -0.350  -0.349
 -0.348  -0.348  -0.347  -0.346  -0.346  -0.345  -0.343  -0.343
 -0.340  -0.340  -0.339  -0.338  -0.337  -0.336  -0.335  -0.334
 -0.331  -0.330  -0.329  -0.327  -0.326  -0.325  -0.322  -0.321
 -0.315  -0.305  -0.303  -0.299  -0.288  -0.284  -0.277  -0.272
 -0.270  -0.269  -0.268  -0.266  -0.265  -0.265  -0.264  -0.262
 -0.260  -0.260  -0.259  -0.256  -0.255  -0.254  -0.253  -0.250
 -0.247  -0.245  -0.244  -0.243  -0.223  -0.219  -0.212  -0.210
 -0.208  -0.207  -0.205  -0.203  -0.201  -0.199
 -- Virtual --
 -0.125  -0.120  -0.118  -0.115  -0.111  -0.106  -0.082  -0.076
 -0.073  -0.068  -0.060  -0.058  -0.054  -0.051  -0.024  -0.022
 -0.019  -0.018  -0.017  -0.016  -0.015  -0.014  -0.013  -0.010
 -0.009  -0.009  -0.007  -0.006  -0.005  -0.002   0.005   0.007
  0.009   0.011   0.033   0.036   0.040   0.042   0.045   0.049
  0.051   0.053   0.056   0.056   0.063   0.066   0.068   0.069
  0.072   0.077   0.081   0.082   0.085   0.090   0.091   0.092
  0.093   0.097   0.100   0.101   0.102   0.104   0.106   0.106
  0.108   0.109   0.110   0.110   0.112   0.117   0.119   0.121
  0.122   0.127   0.128   0.129   0.130   0.134   0.139   0.139
  0.140   0.145   0.146   0.150   0.152   0.154   0.154   0.157
  0.157   0.158   0.159   0.162   0.163   0.165   0.167   0.168
  0.169   0.172   0.174   0.175   0.175   0.178   0.181   0.183
  0.185   0.186   0.187   0.188   0.189   0.189   0.194   0.196
  0.197   0.198   0.201   0.202   0.204   0.205   0.207   0.209
  0.209   0.210   0.212   0.213   0.217   0.217   0.219   0.220
  0.222   0.223   0.225   0.226   0.227   0.228   0.229   0.231
  0.234   0.234   0.236   0.236   0.238   0.240   0.241   0.242
  0.243   0.247   0.250   0.251   0.256   0.256   0.258   0.263
  0.265   0.269   0.272   0.274   0.275   0.279   0.279   0.282
  0.285   0.286   0.286   0.291   0.295   0.296   0.299   0.305
  0.307   0.309   0.310   0.312   0.314   0.315   0.317   0.319
  0.323   0.324   0.326   0.327   0.328   0.329   0.331   0.333
  0.337   0.338   0.343   0.346   0.348   0.350   0.351   0.353
  0.354   0.357   0.363   0.369   0.370   0.382   0.382   0.392
  0.393   0.394   0.396   0.401   0.401   0.405   0.408   0.410
  0.412   0.414   0.415   0.416   0.418   0.419   0.420   0.424
  0.426   0.431   0.433   0.435   0.435   0.442   0.445   0.447
  0.448   0.450   0.456   0.456   0.460   0.462   0.463   0.465
  0.465   0.467   0.467   0.471   0.472   0.473   0.474   0.476
  0.478   0.480   0.480   0.483   0.483   0.485   0.487   0.488
  0.490   0.490   0.492   0.493   0.494   0.495   0.496   0.497
  0.498   0.499   0.499   0.500   0.501   0.501   0.501   0.503
  0.503   0.506   0.507   0.507   0.508   0.510   0.510   0.511
  0.513   0.513   0.514   0.516   0.516   0.517   0.518   0.521
  0.521   0.522   0.524   0.524   0.524   0.525   0.526   0.526
  0.527   0.529   0.530   0.531   0.532   0.532   0.533   0.533
  0.534   0.535   0.536   0.536   0.537   0.538   0.538   0.539
  0.539   0.540   0.541   0.542   0.544   0.545   0.545   0.546
  0.546   0.548   0.548   0.549   0.550   0.551   0.552   0.553
  0.553   0.554   0.555   0.555   0.556   0.558   0.558   0.559
  0.559   0.560   0.561   0.562   0.563   0.563   0.564   0.564
  0.565   0.567   0.567   0.568   0.569   0.570   0.571   0.572
  0.572   0.574   0.575   0.576   0.576   0.578   0.579   0.580
  0.580   0.582   0.583   0.583   0.584   0.585   0.586   0.587
  0.588   0.589   0.589   0.590   0.591   0.592   0.592   0.592
  0.594   0.595   0.595   0.596   0.596   0.597   0.598   0.601
  0.602   0.602   0.602   0.605   0.606   0.607   0.608   0.609
  0.609   0.610   0.611   0.612   0.613   0.614   0.616   0.617
  0.618   0.619   0.620   0.622   0.623   0.624   0.625   0.628
  0.629   0.630   0.631   0.632   0.633   0.634   0.634   0.635
  0.636   0.636   0.638   0.639   0.640   0.642   0.642   0.643
  0.644   0.644   0.646   0.646   0.648   0.649   0.650   0.651
  0.652   0.653   0.653   0.654   0.655   0.657   0.658   0.658
  0.659   0.660   0.661   0.662   0.662   0.663   0.665   0.665
  0.666   0.666   0.667   0.668   0.668   0.669   0.670   0.670
  0.671   0.674   0.675   0.676   0.677   0.677   0.678   0.679
  0.680   0.682   0.683   0.684   0.684   0.687   0.687   0.689
  0.690   0.691   0.692   0.693   0.694   0.695   0.695   0.697
  0.698   0.699   0.701   0.702   0.703   0.705   0.706   0.707
  0.708   0.710   0.712   0.712   0.715   0.716   0.718   0.719
  0.719   0.720   0.722   0.723   0.724   0.725   0.727   0.728
  0.728   0.729   0.729   0.731   0.732   0.734   0.734   0.735
  0.736   0.737   0.738   0.742   0.742   0.745   0.746   0.748
  0.749   0.751   0.752   0.753   0.754   0.756   0.758   0.759
  0.760   0.762   0.763   0.763   0.766   0.766   0.767   0.768
  0.770   0.771   0.772   0.774   0.775   0.776   0.778   0.780
  0.782   0.783   0.784   0.785   0.787   0.787   0.788   0.788
  0.789   0.790   0.792   0.794   0.794   0.795   0.797   0.798
  0.799   0.800   0.801   0.802   0.803   0.804   0.806   0.806
  0.807   0.807   0.808   0.809   0.810   0.811   0.811   0.812
  0.813   0.815   0.815   0.816   0.817   0.817   0.818   0.820
  0.821   0.822   0.822   0.824   0.825   0.826   0.826   0.827
  0.828   0.829   0.830   0.832   0.832   0.833   0.833   0.834
  0.836   0.837   0.839   0.841   0.842   0.844   0.846   0.848
  0.851   0.853   0.856   0.856   0.858   0.860   0.863   0.864
  0.868   0.870   0.875   0.876   0.881   0.888   0.890   0.892
  0.897   0.898   0.901   0.903   0.904   0.905   0.907   0.910
  0.913   0.915   0.918   0.920   0.923   0.924   0.925   0.927
  0.928   0.931   0.932   0.933   0.935   0.936   0.936   0.937
  0.939   0.940   0.943   0.943   0.946   0.947   0.949   0.951
  0.954   0.956   0.960   0.961   0.962   0.965   0.967   0.968
  0.975   0.979   0.981   0.982   0.986   0.987   0.988   0.992
  0.993   0.994   0.997   1.001   1.003   1.007   1.009   1.011
  1.012   1.013   1.016   1.016   1.019   1.021   1.021   1.021
  1.022   1.024   1.025   1.028   1.029   1.031   1.033   1.034
  1.035   1.037   1.038   1.039   1.043   1.045   1.046   1.048
  1.050   1.052   1.055   1.056   1.057   1.060   1.062   1.064
  1.065   1.066   1.067   1.069   1.070   1.071   1.073   1.074
  1.077   1.078   1.079   1.081   1.081   1.083   1.085   1.086
  1.088   1.089   1.091   1.092   1.093   1.095   1.097   1.099
  1.099   1.103   1.104   1.105   1.110   1.111   1.112   1.114
  1.115   1.119   1.123   1.123   1.125   1.126   1.130   1.133
  1.134   1.135   1.138   1.138   1.140   1.144   1.145   1.147
  1.151   1.154   1.158   1.160   1.162   1.163   1.164   1.166
  1.166   1.169   1.170   1.170   1.173   1.173   1.176   1.177
  1.180   1.181   1.182   1.183   1.184   1.185   1.186   1.189
  1.191   1.194   1.196   1.198   1.200   1.201   1.204   1.206
  1.207   1.210   1.212   1.213   1.217   1.218   1.219   1.223
  1.226   1.227   1.231   1.235   1.238   1.240   1.242   1.243
  1.247   1.251   1.253   1.254   1.257   1.259   1.261   1.262
  1.264   1.268   1.269   1.271   1.272   1.275   1.277   1.279
  1.280   1.281   1.283   1.285   1.286   1.288   1.291   1.293
  1.297   1.297   1.299   1.301   1.302   1.305   1.309   1.310
  1.312   1.314   1.318   1.320   1.324   1.325   1.327   1.331
  1.331   1.334   1.336   1.342   1.345   1.349   1.350   1.352
  1.353   1.354   1.355   1.356   1.363   1.364   1.366   1.370
  1.371   1.372   1.374   1.377   1.382   1.386   1.387   1.390
  1.392   1.394   1.397   1.399   1.401   1.403   1.405   1.407
  1.409   1.412   1.416   1.419   1.419   1.423   1.425   1.427
  1.430   1.437   1.439   1.441   1.444   1.445   1.447   1.450
  1.453   1.455   1.455   1.457   1.461   1.464   1.465   1.466
  1.468   1.471   1.472   1.473   1.473   1.474   1.478   1.480
  1.482   1.482   1.486   1.487   1.490   1.492   1.494   1.495
  1.498   1.502   1.505   1.506   1.509   1.512   1.513   1.516
  1.519   1.525   1.526   1.528   1.531   1.533   1.534   1.537
  1.540   1.544   1.545   1.547   1.551   1.555   1.555   1.557
  1.559   1.565   1.566   1.568   1.571   1.573   1.574   1.578
  1.579   1.581   1.582   1.587   1.589   1.590   1.591   1.595
  1.601   1.605   1.606   1.611   1.614   1.615   1.618   1.619
  1.623   1.626   1.632   1.635   1.637   1.640   1.643   1.646
  1.652   1.654   1.658   1.660   1.663   1.665   1.667   1.670
  1.682   1.686   1.689   1.690   1.694   1.698   1.699   1.702
  1.703   1.704   1.708   1.709   1.711   1.713   1.718   1.721
  1.722   1.724   1.725   1.728   1.731   1.732   1.733   1.734
  1.737   1.739   1.742   1.742   1.744   1.748   1.749   1.751
  1.752   1.754   1.756   1.756   1.757   1.759   1.761   1.763
  1.764   1.765   1.766   1.768   1.770   1.770   1.772   1.773
  1.774   1.775   1.776   1.776   1.777   1.779   1.780   1.781
  1.783   1.783   1.785   1.786   1.787   1.787   1.788   1.790
  1.791   1.794   1.795   1.796   1.798   1.798   1.800   1.801
  1.802   1.803   1.805   1.805   1.808   1.810   1.811   1.812
  1.814   1.815   1.817   1.819   1.819   1.821   1.822   1.825
  1.826   1.826   1.827   1.832   1.832   1.834   1.838   1.838
  1.838   1.841   1.845   1.849   1.851   1.852   1.854   1.857
  1.858   1.859   1.862   1.865   1.866   1.866   1.867   1.870
  1.873   1.875   1.879   1.881   1.882   1.885   1.886   1.889
  1.890   1.894   1.895   1.897   1.902   1.903   1.907   1.908
  1.912   1.915   1.917   1.917   1.921   1.922   1.922   1.925
  1.925   1.927   1.927   1.930   1.932   1.933   1.933   1.940
  1.941   1.943   1.943   1.944   1.945   1.948   1.950   1.952
  1.956   1.958   1.960   1.961   1.963   1.965   1.968   1.969
  1.970   1.971   1.972   1.974   1.974   1.978   1.979   1.981
  1.982   1.984   1.985   1.989   1.991   1.993   1.995   1.997
  1.999   1.999   2.002   2.004   2.004   2.005   2.005   2.006
  2.008   2.009   2.011   2.013   2.013   2.015   2.015   2.016
  2.018   2.019   2.020   2.021   2.022   2.022   2.023   2.026
  2.027   2.028   2.029   2.030   2.030   2.032   2.033   2.034
  2.035   2.037   2.039   2.039   2.041   2.041   2.042   2.045
  2.046   2.047   2.049   2.051   2.053   2.054   2.054   2.056
  2.057   2.058   2.060   2.061   2.062   2.063   2.064   2.065
  2.067   2.067   2.069   2.071   2.072   2.073   2.073   2.075
  2.076   2.077   2.080   2.081   2.083   2.083   2.085   2.088
  2.091   2.092   2.093   2.097   2.098   2.099   2.102   2.104
  2.106   2.108   2.112   2.115   2.118   2.120   2.121   2.124
  2.127   2.128   2.132   2.135   2.136   2.136   2.139   2.142
  2.144   2.148   2.154   2.155   2.160   2.161   2.162   2.169
  2.179   2.181   2.187   2.194   2.195   2.200   2.201   2.205
  2.208   2.210   2.215   2.220   2.221   2.223   2.223   2.224
  2.233   2.235   2.236   2.238   2.240   2.248   2.249   2.251
  2.254   2.254   2.255   2.255   2.259   2.262   2.264   2.265
  2.270   2.270   2.275   2.279   2.281   2.283   2.285   2.286
  2.289   2.290   2.295   2.298   2.298   2.301   2.302   2.304
  2.306   2.308   2.311   2.312   2.313   2.316   2.318   2.320
  2.323   2.326   2.327   2.328   2.329   2.335   2.337   2.339
  2.342   2.344   2.345   2.347   2.350   2.354   2.354   2.357
  2.358   2.360   2.362   2.362   2.366   2.370   2.372   2.373
  2.374   2.375   2.377   2.379   2.380   2.382   2.383   2.384
  2.387   2.388   2.390   2.391   2.394   2.395   2.396   2.397
  2.399   2.399   2.403   2.404   2.405   2.408   2.409   2.411
  2.412   2.413   2.414   2.417   2.420   2.421   2.424   2.427
  2.427   2.429   2.431   2.436   2.438   2.440   2.443   2.446
  2.448   2.449   2.451   2.455   2.457   2.459   2.462   2.463
  2.465   2.467   2.470   2.472   2.473   2.475   2.477   2.478
  2.480   2.481   2.484   2.486   2.487   2.488   2.488   2.491
  2.494   2.497   2.497   2.500   2.502   2.503   2.505   2.509
  2.510   2.511   2.514   2.516   2.518   2.520   2.523   2.525
  2.526   2.529   2.530   2.532   2.537   2.538   2.541   2.543
  2.544   2.547   2.550   2.553   2.557   2.559   2.561   2.566
  2.572   2.573   2.577   2.581   2.581   2.586   2.588   2.588
  2.591   2.593   2.596   2.597   2.598   2.600   2.603   2.604
  2.606   2.609   2.611   2.612   2.614   2.616   2.619   2.620
  2.622   2.624   2.625   2.629   2.631   2.634   2.634   2.635
  2.636   2.638   2.639   2.641   2.644   2.645   2.645   2.647
  2.649   2.651   2.652   2.653   2.655   2.658   2.658   2.661
  2.662   2.665   2.666   2.667   2.668   2.671   2.673   2.675
  2.675   2.678   2.680   2.681   2.683   2.683   2.686   2.688
  2.690   2.691   2.692   2.694   2.697   2.702   2.704   2.706
  2.708   2.709   2.715   2.719   2.722   2.724   2.727   2.730
  2.732   2.733   2.735   2.735   2.738   2.740   2.741   2.743
  2.747   2.749   2.752   2.753   2.756   2.758   2.758   2.760
  2.762   2.763   2.768   2.769   2.770   2.771   2.776   2.778
  2.780   2.783   2.787   2.787   2.790   2.791   2.794   2.797
  2.801   2.802   2.807   2.809   2.811   2.816   2.820   2.822
  2.828   2.828   2.830   2.831   2.832   2.837   2.840   2.841
  2.844   2.850   2.851   2.855   2.857   2.860   2.860   2.863
  2.863   2.864   2.866   2.870   2.872   2.873   2.875   2.881
  2.883   2.884   2.888   2.889   2.889   2.892   2.894   2.898
  2.898   2.900   2.902   2.903   2.904   2.905   2.907   2.909
  2.910   2.912   2.913   2.915   2.917   2.918   2.921   2.923
  2.923   2.924   2.925   2.929   2.929   2.931   2.933   2.934
  2.936   2.939   2.943   2.947   2.949   2.950   2.952   2.959
  2.961   2.964   2.966   2.969   2.972   2.974   2.977   2.979
  2.984   2.987   2.989   2.993   2.995   2.998   3.000   3.004
  3.007   3.010   3.011   3.013   3.016   3.018   3.022   3.023
  3.028   3.030   3.031   3.034   3.038   3.040   3.045   3.046
  3.047   3.049   3.053   3.053   3.060   3.061   3.062   3.065
  3.067   3.072   3.077   3.078   3.081   3.082   3.093   3.110
  3.111   3.116   3.129   3.135   3.139   3.145   3.145   3.151
  3.154   3.156   3.160   3.163   3.165   3.171   3.177   3.180
  3.191   3.193   3.204   3.219   3.228   3.240   3.245   3.247
  3.250   3.252   3.262   3.268   3.270   3.272   3.274   3.287
  3.294   3.305   3.309   3.312   3.318   3.319   3.327   3.334
  3.335   3.339   3.340   3.346   3.356   3.368   3.376   3.386
  3.387   3.391   3.409   3.412   3.419   3.423   3.430   3.435
  3.445   3.449   3.452   3.478   3.478   3.479   3.487   3.491
  3.496   3.500   3.508   3.520   3.523   3.528   3.541   3.544
  3.551   3.552   3.561   3.572   3.580   3.592   3.596   3.602
  3.604   3.624   3.672   3.694   3.856   3.858   4.005   4.022
  4.075   4.076   4.083   4.087   4.091   4.092   4.095   4.099
  4.104   4.107   4.108   4.114   4.115   4.116   4.122   4.125
  4.126   4.127   4.137   4.139   4.148   4.151   4.152   4.156
  4.159   4.161   4.164   4.167   4.171   4.175   4.177   4.178
  4.187   4.189   4.195   4.204   4.217   4.219   4.235   4.239
  4.244   4.246   4.247   4.256   4.257   4.260   4.264   4.266
  4.270   4.273   4.282   4.285   4.288   4.292   4.296   4.307
  4.312   4.320   4.320   4.363   4.384   4.390   4.395   4.396
  4.398   4.401   4.402   4.410   4.413   4.415   4.416   4.419
  4.422   4.425   4.427   4.430   4.432   4.441   4.458   4.459
  4.477   4.482   4.496   4.504   4.531   4.532   4.552   4.555
  4.559   4.568   4.614   4.620   4.629   4.637   4.638   4.641
  4.654   4.656   4.682   4.684   4.694   4.696   4.699   4.700
  4.705   4.710   4.712   4.716   4.749   4.777   4.821   4.827
  4.837   4.855   4.872   4.873   4.876   4.886   4.891   4.897
  4.898   4.903   4.950   4.961   4.965   4.969   4.976   4.983
  4.987   5.002   5.008   5.028   5.166   5.177   5.180   5.184
  5.186   5.191   5.212   5.215   5.296   5.328   5.331   5.345
  5.351   5.366
 --------------------------------------------------------------
 
          Ground-State Mulliken Net Atomic Charges

     Atom                 Charge (a.u.)
  ----------------------------------------
      1 O                    -0.480086
      2 C                    -0.086160
      3 H                     0.135203
      4 H                     0.127954
      5 H                     0.130999
      6 O                    -0.469489
      7 C                     0.601775
      8 C                    -0.245145
      9 H                     0.124473
     10 H                     0.128471
     11 C                    -0.181049
     12 H                     0.116134
     13 H                     0.120668
     14 C                    -0.198250
     15 H                     0.101240
     16 H                     0.114866
     17 C                     0.013374
     18 C                     0.089231
     19 C                    -0.106394
     20 H                     0.090348
     21 C                    -0.085664
     22 H                     0.088420
     23 C                    -0.079943
     24 H                     0.089652
     25 C                    -0.091176
     26 H                     0.092103
     27 C                    -0.120770
     28 H                     0.095085
     29 C                     0.016052
     30 C                    -0.015366
     31 C                     0.014928
     32 C                    -0.034099
     33 C                     0.018777
     34 C                     0.005108
     35 C                    -0.005543
     36 C                     0.001760
     37 C                     0.044445
     38 C                     0.010134
     39 C                    -0.089462
     40 C                    -0.010603
     41 C                    -0.016141
     42 C                    -0.017189
     43 C                     0.034036
     44 C                    -0.016083
     45 C                    -0.101864
     46 C                     0.032311
     47 C                    -0.003828
     48 C                     0.010402
     49 C                    -0.010187
     50 C                     0.014307
     51 C                     0.018849
     52 C                     0.024692
     53 C                     0.002869
     54 C                     0.024490
     55 C                     0.016111
     56 C                    -0.006367
     57 C                    -0.037420
     58 C                    -0.014577
     59 C                    -0.014048
     60 C                     0.029688
     61 C                    -0.008825
     62 C                     0.010138
     63 C                     0.038016
     64 C                    -0.012806
     65 C                     0.013784
     66 C                    -0.004879
     67 C                    -0.016469
     68 C                     0.009487
     69 C                     0.016009
     70 C                     0.012058
     71 C                    -0.018470
     72 C                    -0.017475
     73 C                    -0.019474
     74 C                     0.017465
     75 C                    -0.010764
     76 C                    -0.040211
     77 C                    -0.003467
     78 C                    -0.032358
     79 C                     0.028987
     80 C                    -0.010303
     81 C                     0.016522
     82 C                    -0.006139
     83 C                    -0.012995
     84 C                     0.016398
     85 C                    -0.013051
     86 C                    -0.002100
     87 C                     0.006212
     88 C                    -0.010648
     89 O                    -0.471580
     90 C                    -0.090934
     91 H                     0.129892
     92 H                     0.133418
     93 H                     0.134659
     94 O                    -0.473020
     95 C                     0.604190
     96 C                    -0.267041
     97 H                     0.142196
     98 H                     0.126221
     99 C                    -0.169253
    100 H                     0.134573
    101 H                     0.102502
    102 C                    -0.196400
    103 H                     0.102189
    104 H                     0.105040
    105 C                     0.014618
    106 C                     0.087171
    107 C                    -0.106403
    108 H                     0.128941
    109 C                    -0.108745
    110 H                     0.090864
    111 C                    -0.086564
    112 H                     0.095923
    113 C                    -0.096751
    114 H                     0.088425
    115 C                    -0.103590
    116 H                     0.087785
    117 C                     0.000265
    118 C                    -0.016276
    119 C                    -0.006518
    120 C                    -0.023936
    121 C                     0.000458
    122 C                     0.024403
    123 C                     0.016101
    124 C                     0.000724
    125 C                     0.034849
    126 C                    -0.014507
    127 C                    -0.090451
    128 C                     0.008945
    129 C                    -0.030282
    130 C                     0.014832
    131 C                     0.002942
    132 C                    -0.015424
    133 C                    -0.055667
    134 C                     0.004273
    135 C                     0.011121
    136 C                    -0.021114
    137 C                    -0.003257
    138 C                     0.016410
    139 C                    -0.004119
    140 C                     0.033368
    141 C                     0.022645
    142 C                    -0.007129
    143 C                     0.036440
    144 C                    -0.013597
    145 C                    -0.005981
    146 C                    -0.022597
    147 C                     0.004895
    148 C                    -0.015986
    149 C                     0.036597
    150 C                    -0.028022
    151 C                     0.019110
    152 C                     0.017210
    153 C                    -0.027893
    154 C                    -0.024737
    155 C                    -0.020470
    156 C                     0.012758
    157 C                     0.023762
    158 C                     0.006595
    159 C                     0.000237
    160 C                     0.013097
    161 C                    -0.001270
    162 C                    -0.011689
    163 C                    -0.011780
    164 C                    -0.019087
    165 C                     0.019578
    166 C                    -0.004590
    167 C                    -0.003280
    168 C                     0.021197
    169 C                     0.018429
    170 C                    -0.009847
    171 C                     0.001712
    172 C                     0.002381
    173 C                     0.014500
    174 C                    -0.032744
    175 C                    -0.021769
    176 C                    -0.000835
  ----------------------------------------
  Sum of atomic charges =     0.000000

 -----------------------------------------------------------------
                    Cartesian Multipole Moments
 -----------------------------------------------------------------
    Charge (ESU x 10^10)
                 0.0000
    Dipole Moment (Debye)
         X      -6.1301      Y       0.3777      Z      -0.4555
       Tot       6.1586
    Quadrupole Moments (Debye-Ang)
        XX    -765.9429     XY      -1.0465     YY    -828.4121
        XZ      -1.1655     YZ      -0.7027     ZZ    -782.9331
    Octopole Moments (Debye-Ang^2)
       XXX    -955.4818    XXY      56.8465    XYY    -259.6155
       YYY     202.6124    XXZ    -104.9624    XYZ     111.0565
       YYZ     -62.0841    XZZ    -203.4254    YZZ     -59.9332
       ZZZ      35.1364
    Hexadecapole Moments (Debye-Ang^3)
      XXXX -161538.2695   XXXY   -2036.1926   XXYY  -34776.8585
      XYYY     320.1249   YYYY  -40130.6138   XXXZ     917.5195
      XXYZ    -254.4405   XYYZ    -359.1320   YYYZ     312.8200
      XXZZ  -30500.1363   XYZZ   -1151.7006   YYZZ   -9693.5295
      XZZZ     310.7747   YZZZ    -534.4990   ZZZZ  -23745.0815
 -----------------------------------------------------------------
Archival summary:
1\1\mn251\SP\ProcedureUnspecified\6-31G**\428\afmv_a\FriOct1207:32:542018FriOct1207:32:542018\0\\#,ProcedureUnspecified,6-31G**,\\0,1\C\C,1,1.3999\C,1,1.41471,2,115.95\C,3,1.40625,1,119.178,2,-136.954,0\C,4,1.40808,3,119.705,1,0.759139,0\C,4,1.40844,3,108.661,1,143.892,0\C,6,1.39776,4,110.268,3,1.29305,0\C,7,1.39198,6,124.677,4,-142.445,0\C,8,1.40243,7,123.96,6,138.111,0\C,9,1.37766,8,108.107,7,-138.582,0\C,2,1.41521,1,121.494,3,-3.7451,0\C,11,1.41279,2,117.854,1,138.501,0\C,12,1.379,11,123.173,2,2.75161,0\C,13,1.39634,12,120.568,11,-141.379,0\C,14,1.40235,13,122.128,12,-3.62617,0\C,12,1.41094,11,107.62,2,-140.833,0\C,16,1.3827,12,121.071,11,145.699,0\C,17,1.34416,16,121.873,12,-144.189,0\C,16,1.39654,12,109.176,11,-4.40842,0\C,19,1.39541,16,106.529,12,6.41212,0\C,20,1.40332,19,120.519,16,134.838,0\C,18,1.40591,17,110.052,16,147.486,0\C,22,1.38961,18,117.426,17,-130.561,0\C,23,1.39357,22,120.771,18,130.154,0\C,24,1.396,23,106.349,22,-150.407,0\C,25,1.34694,24,108.51,23,4.59957,0\C,26,1.36952,25,110.555,24,-7.54817,0\C,27,1.39954,26,116.772,25,142.337,0\C,28,1.40789,27,120.627,26,2.71418,0\C,5,1.41971,4,122.157,3,-0.880378,0\C,30,1.36633,5,106.389,4,137.291,0\C,31,1.39461,30,124.613,5,-138.137,0\C,32,1.36077,31,125.029,30,143.627,0\C,32,1.41926,31,116.727,30,0.944575,0\C,34,1.40078,32,109.268,31,146.283,0\C,35,1.37435,34,120.478,32,-137.417,0\C,36,1.38,35,120.252,34,-8.43197,0\C,35,1.38111,34,105.088,32,0.839914,0\C,34,1.41289,32,120.969,31,-1.03385,0\C,39,1.38521,34,118.663,32,3.95948,0\C,39,1.4086,34,117.488,32,136.287,0\C,36,1.41592,35,121.256,34,135.643,0\C,42,1.39599,36,121.157,35,5.68812,0\C,43,1.40572,42,116.12,36,-12.9755,0\C,44,1.40392,43,109.376,42,-133.657,0\C,45,1.377,44,121.747,43,148.853,0\C,46,1.41009,45,120.784,44,-1.25714,0\C,47,1.36823,46,108.444,45,-137.627,0\C,48,1.37646,47,109.179,46,-2.58154,0\C,49,1.3784,48,108.302,47,2.827,0\C,49,1.38597,48,120.562,47,148.164,0\C,51,1.41333,49,118.92,48,-1.21056,0\C,52,1.41199,51,105.322,49,-143.505,0\C,53,1.41472,52,106.667,51,3.4337,0\C,54,1.32589,53,112.672,52,-3.17068,0\C,52,1.41601,51,123.895,49,3.12755,0\C,56,1.40183,52,115.829,51,-2.74222,0\C,24,1.43158,23,125.591,22,3.00979,0\C,58,1.49381,24,119.516,23,1.58038,0\C,59,1.46089,58,128.457,24,67.0038,0\C,60,1.49206,59,119.683,58,148.1,0\C,61,1.39429,60,120.546,59,-45.0769,0\H,62,1.08546,61,117.12,60,-5.8235,0\C,62,1.36964,61,119.778,60,178.973,0\H,64,1.08615,62,121.88,61,175.101,0\C,61,1.40618,60,119.381,59,132.864,0\H,66,1.08581,61,121.624,60,5.72215,0\C,66,1.421,61,120.161,60,-174.932,0\H,68,1.08586,66,116.747,61,-177.102,0\C,68,1.42263,66,119.871,61,-7.3869,0\H,70,1.08575,68,116.248,66,176.688,0\C,15,1.49681,14,121.328,13,146.757,0\C,60,1.53587,59,116.095,58,10.429,0\H,73,1.09656,60,114.097,59,-58.9012,0\H,73,1.09781,60,101.871,59,-162.303,0\C,73,1.53783,60,117.233,59,78.4894,0\H,76,1.09673,73,114.259,60,23.2109,0\H,76,1.09773,73,105.818,60,146.142,0\C,76,1.56154,73,109.739,60,-106.007,0\H,79,1.09669,76,110.671,73,-2.93558,0\H,79,1.09679,76,113.098,73,-129.327,0\C,79,1.53461,76,112.412,73,111.571,0\O,82,1.20548,79,123.25,76,-9.88728,0\O,82,1.35238,79,109.666,76,174.886,0\C,84,1.45839,82,121.937,79,-166.876,0\H,85,1.09592,84,109.595,82,57.1257,0\H,85,1.09689,84,114.805,82,-173.218,0\H,85,1.09711,84,105.671,82,-59.9202,0\H,6,2.68648,4,95.5849,3,116.856,0\C,89,1.08558,6,152.16,4,-3.77508,0\C,90,1.39162,89,124.962,6,133.103,0\H,91,1.08647,90,121.237,89,7.21251,0\C,91,1.38788,90,120.301,89,-168.258,0\H,93,1.08548,91,117.519,90,-179.968,0\C,93,1.39898,91,121.495,90,-5.49567,0\H,95,1.08604,93,118.214,91,174.055,0\C,95,1.43523,93,119.444,91,3.49896,0\C,97,1.40204,95,119.157,93,-4.71975,0\H,98,1.08547,97,120.532,95,-177.795,0\C,97,1.52227,95,119.537,93,-179.096,0\C,100,1.52165,97,118.101,95,-69.3069,0\C,101,1.46413,100,61.6852,97,-112.717,0\C,101,1.46992,100,130.748,97,145.349,0\C,103,1.35643,101,113.409,100,-150.34,0\C,104,1.35417,103,107.003,101,-13.5381,0\C,103,1.38651,101,118.409,100,61.2585,0\C,104,1.40209,103,120.744,101,-153.212,0\C,106,1.40387,103,125.675,101,5.76804,0\C,108,1.38142,106,119.434,103,3.7974,0\C,108,1.41163,106,108.423,103,146.187,0\C,110,1.37052,108,106.104,106,1.65762,0\C,111,1.38173,110,111.565,108,1.3188,0\C,111,1.38546,110,119.342,108,-148.934,0\C,113,1.39212,111,119.783,110,9.76913,0\C,114,1.40276,113,121.114,111,-4.51457,0\C,115,1.35836,114,118.312,113,0.236633,0\C,115,1.37669,114,118.378,113,138.116,0\C,117,1.39575,115,125.405,114,3.10088,0\C,113,1.40632,111,114.653,110,143.294,0\C,112,1.40723,111,122.334,110,-150.388,0\C,118,1.41539,117,117.116,115,-4.56843,0\C,105,1.41646,104,111.343,103,7.82772,0\C,119,1.41731,113,106.073,111,-137.793,0\C,123,1.41697,119,109.498,113,-2.49982,0\C,116,1.42139,115,106.858,114,145.203,0\C,125,1.40941,116,108.839,115,-2.48246,0\C,126,1.38807,125,121.784,116,-139.797,0\C,127,1.37174,126,117.979,125,1.1324,0\C,128,1.39006,127,110.649,126,148.063,0\C,127,1.40041,126,120.23,125,139.262,0\C,130,1.38145,127,123.095,126,-0.756338,0\C,130,1.38872,127,104.895,126,-144.186,0\C,131,1.39987,130,120.766,127,-134.204,0\C,133,1.39266,131,110.336,130,140.526,0\C,128,1.40339,127,121.156,126,1.27533,0\C,135,1.37785,128,122.357,127,-3.23071,0\C,135,1.38282,128,124.058,127,148.52,0\C,137,1.36123,135,116.323,128,-12.7877,0\C,138,1.40269,137,121.608,135,14.9538,0\C,132,1.40523,130,120.193,127,139.997,0\C,140,1.38973,132,119.436,130,3.21826,0\C,139,1.40651,138,105.06,137,-142.65,0\C,142,1.39152,139,112.132,138,-5.86714,0\C,143,1.39527,142,119.949,139,147.172,0\C,144,1.38126,143,116.863,142,-137.042,0\C,145,1.37255,144,108.575,143,146.341,0\C,146,1.37578,145,106.197,144,-1.78383,0\C,146,1.37918,145,119.516,144,-147.664,0\C,144,1.38176,143,123.982,142,5.45403,0\C,149,1.39126,144,115.148,143,-9.25496,0\C,150,1.36829,149,121.654,144,6.156,0\C,150,1.4019,149,121.235,144,-134.644,0\C,152,1.37959,150,120.326,149,5.8795,0\C,153,1.38419,152,121.69,150,139.8,0\C,143,1.40266,142,105.401,139,0.72458,0\C,154,1.40449,153,106.908,152,-139.785,0\C,156,1.39996,154,110.494,153,-3.95894,0\C,157,1.37025,156,104.731,154,2.00636,0\C,157,1.40756,156,122.026,154,146.521,0\C,159,1.365,157,120.102,156,0.9764,0\C,100,1.52429,97,110.885,95,76.8134,0\H,161,1.09671,100,112.396,97,-46.4688,0\H,161,1.09696,100,108.924,97,-160.012,0\C,161,1.54798,100,110.342,97,76.4663,0\H,164,1.09696,161,105.651,100,-81.2936,0\H,164,1.09712,161,112.054,100,38.4584,0\C,164,1.46473,161,110.62,100,158.255,0\H,167,1.09692,164,109.447,161,44.5773,0\H,167,1.09775,164,105.792,161,-67.0542,0\C,167,1.49404,164,114.74,161,171.135,0\O,170,1.21106,167,121.273,164,-126.436,0\O,170,1.37329,167,111.486,164,60.4307,0\C,172,1.46538,170,118.816,167,176.085,0\H,173,1.0964,172,112.086,170,173.465,0\H,173,1.09699,172,109.303,170,50.8795,0\H,173,1.09742,172,106.838,170,-68.9856,0\\\@

 Total job time:  867.43s(wall), 8294.34s(cpu) 
 Fri Oct 12 07:32:54 2018

        *************************************************************
        *                                                           *
        *  Thank you very much for using Q-Chem.  Have a nice day.  *
        *                                                           *
        *************************************************************


