
Running Job 1 of 1 ./7/27.qcin
qchem ./7/27.qcin_28367.0 /tmpu/cab_g/afmv_a/scratch_qchem/qchem28367/ 1
/tmpu/appuserlic/qchem4.4/serial-multicore/exe/qcprog.exe_s ./7/27.qcin_28367.0 /tmpu/cab_g/afmv_a/scratch_qchem/qchem28367/
Check license passed

                  Welcome to Q-Chem
     A Quantum Leap Into The Future Of Chemistry


 Q-Chem 4.4, Q-Chem, Inc., Pleasanton, CA (2016)

 Y. Shao,  Z. Gan,  E. Epifanovsky,  A. T. B. Gilbert,  M. Wormit,  
 J. Kussmann,  A. W. Lange,  A. Behn,  J. Deng,  X. Feng,  D. Ghosh,  
 M. Goldey,  P. R. Horn,  L. D. Jacobson,  I. Kaliman,  F. Rob,  
 R. Z. Khaliullin,  T. Kus,  A. Landau,  J. Liu,  E. I. Proynov,  Y. M. Rhee,  
 R. M. Richard,  M. A. Rohrdanz,  R. P. Steele,  E. J. Sundstrom,  
 H. L. Woodcock III,  P. M. Zimmerman,  D. Zuev,  B. Albrecht,  E. Alguire,  
 B. Austin,  S. A. Baeppler,  G. J. O. Beran,  Y. A. Bernard,  E. Berquist,  
 K. Brandhorst,  K. B. Bravaya,  S. T. Brown,  D. Casanova,  C.-M. Chang,  
 Y. Chen,  S. H. Chien,  K. D. Closser,  M. P. Coons,  D. L. Crittenden,  
 S. Dasgupta,  M. Diedenhofen,  R. A. DiStasio Jr.,  H. Do,  A. D. Dutoi,  
 R. G. Edgar,  P.-T. Fang,  S. Fatehi,  Q. Feng,  L. Fusti-Molnar,  
 A. Ghysels,  A. Golubeva-Zadorozhnaya,  J. Gomes,  A. Gunina,  
 M. W. D. Hanson-Heine,  P. H. P. Harbach,  A. W. Hauser,  J. E. Herr,  
 E. G. Hohenstein,  Z. C. Holden,  K. Hui,  T.-C. Jagau,  H. Ji,  B. Kaduk,  
 K. Khistyaev,  Jaehoon Kim,  Jihan Kim,  R. A. King,  P. Klunzinger,  
 K. Koh,  D. Kosenkov,  T. Kowalczyk,  C. M. Krauter,  A. Kunitsa,  
 K. U. Lao,  A. Laurent,  K. V. Lawler,  J. Lee,  D. Lefrancois,  S. Lehtola,  
 S. V. Levchenko,  C. Y. Lin,  Y.-S. Lin,  F. Liu,  E. Livshits,  
 R. C. Lochan,  A. Luenser,  P. Manohar,  S. F. Manzer,  S.-P. Mao,  Y. Mao,  
 N. Mardirossian,  A. V. Marenich,  L. A. Martinez-Martinez,  S. A. Maurer,  
 N. J. Mayhall,  J.-M. Mewes,  A. F. Morrison,  K. Nanda,  T. S. Nguyen-Beck,  
 C. M. Oana,  R. Olivares-Amaya,  D. P. O'Neill,  J. A. Parkhill,  
 T. M. Perrine,  R. Peverati,  P. A. Pieniazek,  F. Plasser,  A. Prociuk,  
 D. R. Rehn,  E. Rosta,  N. J. Russ,  N. Sergueev,  S. M. Sharada,  
 S. Sharma,  D. W. Small,  A. Sodt,  T. Stauch,  T. Stein,  D. Stuck,  
 Y.-C. Su,  A. J. W. Thom,  T. Tsuchimochi,  L. Vogt,  O. Vydrov,  T. Wang,  
 M. A. Watson,  J. Wenzel,  A. White,  C. F. Williams,  V. Vanovschi,  
 K. Yao,  S. Yeganeh,  S. R. Yost,  Z.-Q. You,  I. Y. Zhang,  X. Zhang,  
 Y. Zhao,  B. R. Brooks,  G. K. L. Chan,  D. M. Chipman,  C. J. Cramer,  
 W. A. Goddard III,  M. S. Gordon,  W. J. Hehre,  A. Klamt,  
 H. F. Schaefer III,  M. W. Schmidt,  C. D. Sherrill,  D. G. Truhlar,  
 A. Warshel,  X. Xu,  A. Aspuru-Guzik,  R. Baer,  A. T. Bell,  N. A. Besley,  
 J.-D. Chai,  A. Dreuw,  B. D. Dunietz,  T. R. Furlani,  S. R. Gwaltney,  
 C.-P. Hsu,  Y. Jung,  J. Kong,  D. S. Lambrecht,  W. Liang,  C. Ochsenfeld,  
 V. A. Rassolov,  L. V. Slipchenko,  J. E. Subotnik,  T. Van Voorhis,  
 J. M. Herbert,  A. I. Krylov,  P. M. W. Gill,  M. Head-Gordon

 Contributors to earlier versions of Q-Chem not listed above: 
 R. D. Adamson,  J. Baker,  E. F. C. Byrd,  A. K. Chakraborty,  C.-L. Cheng,  
 H. Dachsel,  R. J. Doerksen,  G. Hawkins,  A. Heyden,  S. Hirata,  
 G. Kedziora,  F. J. Keil,  C. Kelley,  P. P. Korambath,  W. Kurlancheek,  
 A. M. Lee,  M. S. Lee,  D. Liotard,  I. Lotan,  P. E. Maslen,  N. Nair,  
 D. Neuhauser,  R. Olson,  B. Peters,  J. Ritchie,  N. E. Schultz,  
 N. Shenvi,  A. C. Simmonett,  K. S. Thanthiriwatte,  Q. Wu,  W. Zhang

 Please cite Q-Chem as follows:
 Y. Shao et al., Mol. Phys. 113, 184-215 (2015)
 DOI: 10.1080/00268976.2014.952696

 Q-Chem 4.4.2 for Intel X86 Linux

 Parts of Q-Chem use Armadillo 5.200.1 (Boston Tea Smuggler).
 http://arma.sourceforge.net/

 Q-Chem begins on Fri Oct 12 07:33:02 2018  

Host: 
0

     Scratch files written to /tmpu/cab_g/afmv_a/scratch_qchem/qchem28367//
 Dec716 11556_ 22328  22283 4050   
Processing $rem in /tmpu/appuserlic/qchem4.4/serial-multicore/config/preferences.
 MEM_TOTAL  2000 
FILE_GEOM_ORG=        593

Checking the input file for inconsistencies... 	...done.

--------------------------------------------------------------
User input:
--------------------------------------------------------------
$comment
SP
$end

$rem
MEM_STATIC 5000
MEM_TOTAL 20000
JOBTYPE SP
EXCHANGE B3LYP
BASIS 6-31g(d,p)
$end

$molecule
0 1
O         -10.234000    -16.310000    -12.254000
C          -9.683000    -15.782000    -13.523000
H          -9.380000    -16.616000    -14.169000
H          -8.766000    -15.193000    -13.399000
H         -10.444000    -15.232000    -14.090000
O         -12.106000    -16.892000    -13.388000
C         -11.510000    -16.807000    -12.354000
C         -12.088000    -17.360000    -11.063000
H         -12.152000    -16.568000    -10.307000
H         -11.361000    -18.097000    -10.703000
C         -13.554000    -18.004000    -11.249000
H         -14.083000    -18.009000    -10.288000
H         -14.139000    -17.259000    -11.802000
C         -13.581000    -19.398000    -11.903000
H         -13.056000    -19.229000    -12.851000
H         -13.020000    -20.139000    -11.320000
C         -14.970000    -19.981000    -12.204000
C         -16.024000    -18.887000    -12.453000
C         -16.209000    -18.389000    -13.764000
H         -15.652000    -18.843000    -14.579000
C         -17.167000    -17.437000    -14.051000
H         -17.412000    -17.171000    -15.075000
C         -17.983000    -16.956000    -13.019000
H         -18.759000    -16.226000    -13.226000
C         -17.772000    -17.384000    -11.662000
H         -18.412000    -16.948000    -10.901000
C         -16.813000    -18.375000    -11.419000
H         -16.701000    -18.795000    -10.424000
C         -18.743000    -23.927000    -11.372000
C         -18.666000    -23.622000    -13.792000
C         -16.604000    -27.684000    -14.846000
C         -13.995000    -24.796000     -9.696000
C         -13.452000    -26.156000    -15.162000
C         -18.621000    -23.108000    -12.511000
C         -12.633000    -26.218000    -11.690000
C         -18.329000    -27.076000    -13.177000
C         -15.090000    -22.469000    -15.161000
C         -13.062000    -24.119000    -10.554000
C         -14.901000    -21.249000    -13.029000
C         -13.756000    -22.676000    -14.697000
C         -12.267000    -23.961000    -12.665000
C         -12.748000    -26.827000    -12.981000
C         -17.063000    -22.028000    -13.866000
C         -14.492000    -28.060000    -13.979000
C         -15.470000    -21.309000    -11.677000
C         -14.675000    -22.231000    -10.728000
C         -14.413000    -27.165000    -15.109000
C         -16.186000    -27.440000    -10.423000
C         -16.301000    -28.370000    -12.495000
C         -17.550000    -27.715000    -12.205000
C         -18.986000    -25.871000    -12.823000
C         -15.615000    -22.946000     -9.965000
C         -15.757000    -21.701000    -14.176000
C         -18.834000    -24.988000    -13.975000
C         -12.379000    -24.812000    -11.536000
C         -17.722000    -22.988000    -14.607000
C         -13.084000    -23.894000    -14.948000
C         -16.189000    -25.249000     -9.372000
C         -17.848000    -27.036000    -14.504000
C         -13.616000    -22.077000    -13.436000
C         -18.161000    -25.998000    -10.580000
C         -12.330000    -24.559000    -13.956000
C         -15.717000    -23.505000    -15.856000
C         -14.169000    -27.883000    -11.614000
C         -13.488000    -26.891000    -10.856000
C         -15.022000    -24.655000    -16.186000
C         -15.265000    -24.211000     -9.459000
C         -13.507000    -22.905000    -11.102000
C         -15.547000    -26.457000     -9.652000
C         -16.816000    -21.808000    -11.446000
C         -17.205000    -25.108000    -15.791000
C         -13.005000    -22.774000    -12.401000
C         -13.728000    -24.919000    -15.709000
C         -17.506000    -25.027000     -9.835000
C         -15.670000    -26.917000    -15.608000
C         -18.932000    -25.303000    -11.538000
C         -15.830000    -28.353000    -13.838000
C         -17.023000    -23.725000    -15.617000
C         -15.947000    -25.693000    -16.159000
C         -17.608000    -22.103000    -12.562000
C         -16.930000    -22.706000    -10.353000
C         -15.470000    -28.186000    -11.402000
C         -18.161000    -25.735000    -14.960000
C         -12.635000    -25.937000    -14.066000
C         -14.168000    -26.171000     -9.866000
C         -13.659000    -27.886000    -12.948000
C         -17.853000    -23.741000    -10.350000
C         -17.502000    -27.198000    -10.908000
O          -2.843000    -29.223000     -7.459000
C          -2.117000    -30.428000     -7.333000
H          -2.007000    -30.866000     -8.333000
H          -2.750000    -31.037000     -6.676000
H          -1.100000    -30.225000     -6.976000
O          -4.975000    -30.164000     -7.314000
C          -4.210000    -29.180000     -7.409000
C          -4.614000    -27.647000     -7.496000
H          -3.684000    -27.255000     -7.927000
H          -4.730000    -27.219000     -6.493000
C          -5.916000    -27.373000     -8.352000
H          -5.661000    -27.768000     -9.343000
H          -6.669000    -27.981000     -7.837000
C          -6.209000    -25.884000     -8.330000
H          -6.759000    -25.635000     -7.414000
H          -5.322000    -25.238000     -8.315000
C          -7.059000    -25.371000     -9.566000
C          -8.175000    -26.336000     -9.855000
C          -9.350000    -26.133000     -9.148000
H          -9.338000    -25.410000     -8.338000
C         -10.508000    -26.909000     -9.388000
H         -11.359000    -26.752000     -8.733000
C         -10.462000    -27.946000    -10.327000
H         -11.322000    -28.563000    -10.569000
C          -9.236000    -28.201000    -10.994000
H          -9.228000    -29.028000    -11.699000
C          -8.094000    -27.382000    -10.771000
H          -7.146000    -27.553000    -11.272000
C          -6.525000    -23.907000    -14.858000
C          -8.683000    -22.976000    -14.157000
C          -7.273000    -18.708000    -14.152000
C          -2.859000    -22.495000    -11.726000
C          -6.739000    -18.518000    -10.724000
C          -7.738000    -24.021000    -14.093000
C          -3.399000    -19.898000    -10.842000
C          -6.804000    -20.435000    -15.782000
C          -8.613000    -21.988000    -10.246000
C          -3.391000    -22.301000    -10.429000
C          -7.209000    -23.874000     -9.927000
C          -7.487000    -21.623000     -9.454000
C          -4.811000    -21.049000     -9.195000
C          -4.368000    -18.919000    -10.917000
C          -8.666000    -23.691000    -11.964000
C          -5.576000    -18.050000    -12.772000
C          -6.271000    -24.710000    -10.708000
C          -4.875000    -24.245000    -10.761000
C          -6.797000    -18.059000    -12.077000
C          -3.466000    -20.838000    -14.825000
C          -5.003000    -19.156000    -14.847000
C          -5.425000    -20.158000    -15.702000
C          -7.258000    -21.776000    -15.730000
C          -4.346000    -24.365000    -12.100000
C          -8.365000    -23.299000    -10.646000
C          -8.447000    -21.849000    -14.950000
C          -3.654000    -20.999000    -10.017000
C          -9.254000    -22.784000    -12.893000
C          -7.077000    -20.283000     -9.381000
C          -3.317000    -23.057000    -13.895000
C          -7.705000    -19.700000    -15.048000
C          -6.608000    -22.674000     -9.287000
C          -4.934000    -22.574000    -15.679000
C          -5.772000    -20.013000     -9.311000
C          -9.241000    -21.097000    -11.112000
C          -3.466000    -19.121000    -12.981000
C          -2.849000    -20.081000    -12.108000
C          -8.727000    -19.783000    -11.184000
C          -3.357000    -23.469000    -12.569000
C          -4.332000    -23.205000     -9.944000
C          -2.926000    -21.722000    -13.935000
C          -6.568000    -24.968000    -12.202000
C          -9.379000    -20.272000    -13.259000
C          -5.241000    -22.414000     -9.200000
C          -7.699000    -19.375000    -10.299000
C          -4.315000    -23.481000    -14.775000
C          -7.802000    -18.486000    -12.904000
C          -6.315000    -22.835000    -15.721000
C          -5.919000    -18.417000    -14.075000
C          -9.598000    -21.438000    -12.440000
C          -8.830000    -19.289000    -12.439000
C          -7.735000    -24.479000    -12.743000
C          -5.377000    -24.739000    -12.955000
C          -3.810000    -19.579000    -14.288000
C          -8.740000    -20.543000    -14.561000
C          -5.527000    -18.892000    -10.146000
C          -2.580000    -21.362000    -12.593000
C          -4.388000    -18.405000    -12.219000
C          -5.325000    -24.311000    -14.298000
C          -4.458000    -21.252000    -15.748000
$end

--------------------------------------------------------------
 ----------------------------------------------------------------
             Standard Nuclear Orientation (Angstroms)
    I     Atom           X                Y                Z
 ----------------------------------------------------------------
    1      O      -1.3870956171     6.4272869306    -1.7023410721
    2      C      -1.8688065660     7.2384016110    -0.5609412574
    3      H      -1.9876303376     6.5981398724     0.3225896235
    4      H      -2.8646858959     7.6725143137    -0.7124553551
    5      H      -1.1338911849     8.0008575003    -0.2751609230
    6      O       0.6542276758     6.3843102597    -0.7224348422
    7      C      -0.0523641157     6.1098848538    -1.6481862865
    8      C       0.4570253995     5.2713521904    -2.8074788701
    9      H       0.3345285734     5.8162163697    -3.7514140128
   10      H      -0.1976013499     4.3933131319    -2.8500139237
   11      C       2.0077539694     4.8574699384    -2.6577111031
   12      H       2.4294515671     4.6306742813    -3.6446872254
   13      H       2.5415109008     5.7841473936    -2.4139254756
   14      C       2.2903861802     3.7188383902    -1.6600547340
   15      H       1.8491788835     4.0986016189    -0.7305354973
   16      H       1.7766101366     2.7897902391    -1.9368122271
   17      C       3.7690178598     3.3882871902    -1.4066868986
   18      C       4.6861872519     4.6074828649    -1.6119068125
   19      C       4.9381367520     5.4756323077    -0.5238865947
   20      H       4.5354591285     5.2204456096     0.4524947246
   21      C       5.7838048596     6.5607770790    -0.6411183185
   22      H       6.0961970302     7.1317295696     0.2282385618
   23      C       6.4154225975     6.8055142491    -1.8672519779
   24      H       7.1033166968     7.6380106523    -1.9753095867
   25      C       6.1236242136     5.9883119593    -3.0145044003
   26      H       6.6161459016     6.2500952015    -3.9460133487
   27      C       5.2868146549     4.8784895669    -2.8446367466
   28      H       5.1292505417     4.1823781519    -3.6629102022
   29      C       7.9316935123    -0.2328146307    -1.6483933644
   30      C       8.0671547378     0.7424875832     0.5844948656
   31      C       6.6925083723    -3.0331472251     2.9756312408
   32      C       3.1953784466    -2.0152882225    -2.3539062940
   33      C       3.4136981537    -1.8018399852     3.2966141560
   34      C       7.8199437935     0.8613260770    -0.7689991910
   35      C       2.2528675607    -2.9361515541     0.1193199299
   36      C       8.1362791430    -2.7587153850     0.9828785901
   37      C       4.5309041177     1.8752844185     2.0687619851
   38      C       2.2743082233    -1.2179700708    -1.5917413455
   39      C       3.9579150547     2.4090506828    -0.2671151754
   40      C       3.1959000512     1.4118581391     1.8670165369
   41      C       1.6898420233    -0.5429648967     0.4857757485
   42      C       2.5828970477    -3.1356603204     1.4984732172
   43      C       6.2805592689     2.1223724513     0.4433729990
   44      C       4.5716132190    -3.8507293284     2.5432283579
   45      C       4.3856530328     2.0219794073    -1.6171081567
   46      C       3.6275072872     0.7923311005    -2.1610659402
   47      C       4.4910567086    -2.6824374411     3.3874858510
   48      C       5.7863901357    -4.1078218257    -1.2458866431
   49      C       6.2411319876    -4.3897938059     0.9643193768
   50      C       7.3533726499    -3.7236537411     0.3379775187
   51      C       8.5844009576    -1.6459592560     0.2279278391
   52      C       4.5705040925    -0.0133208184    -2.8233921520
   53      C       4.9819365549     2.3920682408     0.8300359372
   54      C       8.4358234176    -0.4901096924     1.1064683907
   55      C       1.7970923135    -1.6657397458    -0.3740265622
   56      C       7.1365533445     1.4854259459     1.3188930111
   57      C       2.7240052340     0.2557455707     2.5294574857
   58      C       5.3845314451    -2.3202538282    -2.8421952746
   59      C       7.7953411856    -2.3890548844     2.3023490989
   60      C       2.8457126598     1.6079197826     0.5226019346
   61      C       7.5546106831    -2.4912041237    -1.7602613130
   62      C       1.9671498967    -0.7371915695     1.8691160331
   63      C       5.3608071590     1.1495516736     2.9255133639
   64      C       3.9827997372    -4.3909700532     0.2870542416
   65      C       3.0990428565    -3.7305924065    -0.6103108677
   66      C       4.8653276257     0.0785421204     3.6479146159
   67      C       4.3432712669    -1.3985927052    -2.9136586607
   68      C       2.6064039214     0.1402174144    -1.4607291235
   69      C       4.9438756295    -3.4555396669    -2.1589848263
   70      C       5.7551042321     1.6149749840    -1.8873465926
   71      C       7.0362355593    -0.2478362858     3.0935150493
   72      C       2.2295922596     0.5864871438    -0.1897364799
   73      C       3.5760620657    -0.4389221324     3.4437429652
   74      C       6.7006588871    -1.8445193041    -2.6431294086
   75      C       5.7483137283    -2.1776270001     3.6220603700
   76      C       8.3206291358    -1.4777049625    -1.1427945686
   77      C       5.9148154580    -4.0364739566     2.3038945358
   78      C       6.6524200199     1.0021361437     2.5774302140
   79      C       5.9138317006    -0.8258533442     3.7763904832
   80      C       6.6916759097     1.7323389180    -0.8535167228
   81      C       5.8744125482     0.4579100487    -2.7003750430
   82      C       5.2834843700    -4.6102574393    -0.0120887483
   83      C       7.9760494539    -0.9874812505     2.3403210705
   84      C       2.4648174541    -1.9884078715     2.3059154926
   85      C       3.5688305415    -3.2596813805    -1.8425617904
   86      C       3.6198092516    -4.0631848271     1.6288663569
   87      C       6.9230450959    -0.4369602740    -2.5495775457
   88      C       7.1011324548    -3.6068338814    -1.0311572462
   89      O      -7.4304519438    -7.9893890737    -1.7444396961
   90      C      -7.9966329466    -9.2463711209    -1.4371740047
   91      H      -7.9417054511    -9.3886781498    -0.3505849933
   92      H      -7.3593712910    -9.9513857277    -1.9849613599
   93      H      -9.0633493765    -9.2567650663    -1.6920367602
   94      O      -5.2179744078    -8.7143928771    -1.9211955671
   95      C      -6.0944498812    -7.8260015776    -1.9923126778
   96      C      -5.8938187927    -6.2998071303    -2.3813521043
   97      H      -6.8180755424    -5.8959470210    -1.9489501236
   98      H      -5.9417996825    -6.1672879998    -3.4689115345
   99      C      -4.5584845013    -5.6635834370    -1.8199986129
  100      H      -4.6531687425    -5.7819892354    -0.7336533816
  101      H      -3.7883004690    -6.3150184296    -2.2493551160
  102      C      -4.4726719558    -4.2216050258    -2.2856040988
  103      H      -4.0598081533    -4.1913723502    -3.3015698787
  104      H      -5.4352997511    -3.6989885669    -2.3529076237
  105      C      -3.5752906128    -3.2941110307    -1.3648290913
  106      C      -2.3154529973    -4.0194320491    -0.9815268570
  107      C      -1.2587304497    -3.9107355632    -1.8721477254
  108      H      -1.4524524675    -3.4546760697    -2.8383022256
  109      C       0.0119185220    -4.4657637934    -1.5926216004
  110      H       0.7610003125    -4.4184303962    -2.3765291336
  111      C       0.2042486900    -5.1899497159    -0.4103484271
  112      H       1.1600422867    -5.6226870232    -0.1309740843
  113      C      -0.8998946517    -5.3647448470     0.4633243624
  114      H      -0.7228210011    -5.9519531099     1.3604583425
  115      C      -2.1587975921    -4.7622752219     0.1861101177
  116      H      -3.0176383372    -4.8767097015     0.8405131467
  117      C      -3.7467207057    -0.4383614338     3.3520578019
  118      C      -1.8188275474     0.4641228067     2.1339132431
  119      C      -3.7837450532     4.3889447385     1.1649854856
  120      C      -7.8760427903    -0.3554565232     0.4911925661
  121      C      -4.6931046933     3.5358722876    -2.0781260510
  122      C      -2.6158953271    -0.6445488594     2.4870082606
  123      C      -7.7860334150     1.9204999303    -1.1303454488
  124      C      -3.8431907007     3.1625974260     3.2511131145
  125      C      -2.4288651971     0.2797403064    -1.8499068029
  126      C      -7.5132474033    -0.4884391432    -0.8702640545
  127      C      -3.5915146175    -1.7492363488    -1.4480696993
  128      C      -3.6701877589     0.2883750687    -2.5480534483
  129      C      -6.4114064989     0.4936517849    -2.5814344231
  130      C      -6.9552772162     2.9718229996    -1.4583560316
  131      C      -1.9679981836    -0.8463539237     0.2415174440
  132      C      -5.6885264880     4.4514696881    -0.0940106686
  133      C      -4.3217018423    -2.4162880879    -0.3478108233
  134      C      -5.7544081356    -2.0976098650    -0.2309910155
  135      C      -4.5566627994     4.3661705773    -0.9219935501
  136      C      -7.1779085602     2.1709236402     2.9094379769
  137      C      -5.8876993646     3.9338262845     2.2617409041
  138      C      -5.2476899928     3.2657673262     3.2899423591
  139      C      -3.2205848221     1.9151952801     3.5030075495
  140      C      -6.1198362105    -1.8817916273     1.1499676408
  141      C      -2.4548884631    -0.8799657393    -1.0787844538
  142      C      -2.1204969271     1.7413878748     2.6158505120
  143      C      -7.4724826407     0.6607572208    -1.6524423916
  144      C      -1.4138908070     0.3425757729     0.7990523684
  145      C      -4.2623408924     1.5034629496    -2.9248094810
  146      C      -7.1227780532    -0.2246814895     2.6465716804
  147      C      -3.1309525215     3.7431454262     2.2281454730
  148      C      -4.4121560688    -0.8488813969    -2.3005423200
  149      C      -5.4084093847     0.9077112282     3.9916593360
  150      C      -5.5919360912     1.6102238043    -2.8847629189
  151      C      -1.8397585458     1.4393990113    -1.3535540639
  152      C      -7.6015796438     3.2796121272     0.6868859187
  153      C      -8.1712811563     2.0532960884     0.2010802375
  154      C      -2.5157632646     2.6607922638    -1.5707915902
  155      C      -7.1661687992    -0.9926646964     1.4898785331
  156      C      -6.5148040484    -1.3945678361    -1.2166217584
  157      C      -7.6837485059     1.0198703907     2.3761853481
  158      C      -3.8384481396    -2.2050260356     1.1043059778
  159      C      -1.5909754047     2.8536431825     0.4484721215
  160      C      -5.8032706384    -0.7627144837    -2.2654208562
  161      C      -3.6760128102     2.6935989413    -2.3827138241
  162      C      -5.9904557406    -0.2771664457     3.4622134583
  163      C      -3.4225670242     4.2963638029    -0.1569858461
  164      C      -4.0080586959     0.8091172605     3.9120152665
  165      C      -5.1651831624     4.5088147397     1.1994228661
  166      C      -1.3035151186     1.5300737336    -0.0452975595
  167      C      -2.3499170794     3.5009076889    -0.5237141740
  168      C      -2.6979632712    -1.4675353121     1.3258746976
  169      C      -4.9643405041    -1.8904801846     1.9236705434
  170      C      -7.0645735673     3.2514814777     2.0086960943
  171      C      -2.0483106541     2.9039765958     1.8503555036
  172      C      -5.8972845421     2.8928869218    -2.3599499519
  173      C      -8.2131729135     0.9443968599     1.0479182278
  174      C      -6.8690093748     3.8361433236    -0.3604907225
  175      C      -4.9331566672    -1.1035860174     3.0938680215
  176      C      -6.0483605071     2.1396703476     3.7641504592
 ----------------------------------------------------------------
 Molecular Point Group                 C1    NOp =  1
 Largest Abelian Subgroup              C1    NOp =  1
 Nuclear Repulsion Energy = 35060.0801763358 hartrees
 There are      462 alpha and      462 beta electrons
 Requested basis set is 6-31G(d,p)
 There are 676 shells and 2360 basis functions

 Total QAlloc Memory Limit  20000 MB
 Mega-Array Size      4888 MB
 MEM_STATIC part      5000 MB
 A cutoff of  1.0D-08 yielded  38164 shell pairs
 There are    533259 function pairs
 
 -------------------------------------------------------
 OpenMP Integral Computing Module                       
 Release: version 1.0, May 2013, Q-Chem Inc. Pittsburgh 
 -------------------------------------------------------
 Integral Job Info:
 Integral job number is                      11
 Integral operator is                         1
 short-range coefficients                     0
 long-range coefficients              100000000
 Omega coefficients                           0
 if combine SR and LR in K                    0
 Integral screening is                        0
 Integral computing path is                   2
 max size of driver memory is            800000
 size of driver memory is                593474
 size of scratch memory is              2260544
 max col of scratch BK array               1296
 max len of scratch array in speh3          155
 max len of scratch index in speh4           18
 max int batch size is                      520
 min int batch size is                       52
 fixed nKL is                                52
 max L of basis functions is                  2
 order of int derivative is                   0
 number of shells is                        676
 number of basis is                        2360
 number of cartesian basis is              2360
 number of contracted shell pairs         38164
 number of primitive shell pairs         115127
 maxK2 (contraction) of shell pair           36
 max number of K2 of shell pair               1
 max number of CS2 of shell pair           7226
 max number of PS2 of shell pair          34776
 mem total for path MDJ                 1509240
 -------------------------------------------------------
 Smallest overlap matrix eigenvalue = 2.51E-04

 Scale SEOQF with 1.000000e-02/1.000000e-02/1.000000e-01

 Standard Electronic Orientation quadrupole field applied
 Nucleus-field energy     =    -0.0000002349 hartrees
 Guess from superposition of atomic densities
 Warning:  Energy on first SCF cycle will be non-variational
 A restricted hybrid HF-DFT SCF calculation will be
 performed using Pulay DIIS extrapolation
 Exchange:     0.2000 Hartree-Fock + 0.0800 Slater + 0.7200 B88
 Correlation:  0.1900 VWN1RPA + 0.8100 LYP
 Using SG-1 standard quadrature grid
 SCF converges when DIIS error is below 1.0E-05
 using 16 threads for integral computing 
 -------------------------------------------------------
 OpenMP BLAS3 based DFT computing Module                
 Release: version 1.0, May 2013, Q-Chem Inc. Pittsburgh 
 -------------------------------------------------------
 ---------------------------------------
  Cycle       Energy         DIIS Error
 ---------------------------------------
    1   -5858.2859190843      1.83E-02
    2   -5803.1656076983      1.29E-03
    3   -5802.4324555575      1.77E-03
    4   -5804.0715278864      5.89E-04
    5   -5804.2536677822      2.60E-04
    6   -5804.2936220029      1.19E-04
    7   -5804.3031588723      4.45E-05
    8   -5804.3041928266      2.42E-05
    9   -5804.3045609634      8.14E-06 Convergence criterion met
 ---------------------------------------
 SCF time:  CPU 8221.21 s  wall 843.90 s
 SCF   energy in the final basis set = -5804.3045609634
 Total energy in the final basis set = -5804.3045609634
 
 --------------------------------------------------------------
 
                    Orbital Energies (a.u.)
 --------------------------------------------------------------
 
 Alpha MOs
 -- Occupied --
-19.196 -19.193 -19.143 -19.136 -10.327 -10.315 -10.247 -10.244
-10.242 -10.240 -10.240 -10.236 -10.236 -10.235 -10.233 -10.227
-10.225 -10.224 -10.223 -10.223 -10.223 -10.223 -10.222 -10.222
-10.222 -10.222 -10.222 -10.222 -10.221 -10.221 -10.221 -10.221
-10.221 -10.221 -10.221 -10.221 -10.220 -10.220 -10.219 -10.219
-10.219 -10.219 -10.219 -10.219 -10.218 -10.218 -10.218 -10.217
-10.217 -10.217 -10.217 -10.217 -10.216 -10.216 -10.216 -10.216
-10.216 -10.216 -10.216 -10.215 -10.215 -10.215 -10.215 -10.215
-10.215 -10.215 -10.215 -10.214 -10.214 -10.214 -10.214 -10.214
-10.214 -10.214 -10.213 -10.213 -10.213 -10.213 -10.213 -10.213
-10.213 -10.213 -10.212 -10.212 -10.212 -10.212 -10.212 -10.212
-10.212 -10.212 -10.212 -10.211 -10.211 -10.211 -10.211 -10.211
-10.211 -10.211 -10.211 -10.210 -10.210 -10.210 -10.210 -10.210
-10.210 -10.210 -10.210 -10.210 -10.210 -10.210 -10.209 -10.209
-10.209 -10.209 -10.209 -10.209 -10.209 -10.208 -10.208 -10.208
-10.208 -10.208 -10.208 -10.208 -10.207 -10.207 -10.207 -10.206
-10.206 -10.205 -10.205 -10.205 -10.204 -10.204 -10.202 -10.201
-10.201 -10.200 -10.200 -10.198 -10.197 -10.197 -10.197 -10.195
-10.195 -10.193 -10.193 -10.192  -1.094  -1.093  -1.013  -1.005
 -0.985  -0.980  -0.967  -0.966  -0.964  -0.961  -0.961  -0.957
 -0.936  -0.932  -0.927  -0.926  -0.924  -0.924  -0.923  -0.923
 -0.919  -0.917  -0.895  -0.894  -0.892  -0.888  -0.886  -0.882
 -0.874  -0.871  -0.853  -0.850  -0.842  -0.841  -0.840  -0.838
 -0.837  -0.833  -0.822  -0.819  -0.804  -0.798  -0.797  -0.797
 -0.796  -0.794  -0.794  -0.793  -0.790  -0.788  -0.784  -0.779
 -0.773  -0.770  -0.769  -0.768  -0.767  -0.765  -0.764  -0.757
 -0.749  -0.748  -0.745  -0.736  -0.736  -0.732  -0.719  -0.718
 -0.716  -0.714  -0.712  -0.711  -0.709  -0.709  -0.708  -0.708
 -0.706  -0.705  -0.704  -0.704  -0.700  -0.698  -0.672  -0.670
 -0.661  -0.658  -0.658  -0.657  -0.646  -0.645  -0.632  -0.630
 -0.628  -0.624  -0.622  -0.622  -0.620  -0.620  -0.619  -0.617
 -0.615  -0.614  -0.612  -0.611  -0.610  -0.609  -0.609  -0.608
 -0.607  -0.605  -0.604  -0.600  -0.566  -0.564  -0.563  -0.562
 -0.561  -0.559  -0.557  -0.556  -0.555  -0.554  -0.552  -0.548
 -0.535  -0.533  -0.533  -0.532  -0.531  -0.528  -0.524  -0.523
 -0.523  -0.520  -0.520  -0.518  -0.517  -0.514  -0.512  -0.510
 -0.507  -0.502  -0.500  -0.499  -0.492  -0.489  -0.487  -0.486
 -0.485  -0.484  -0.483  -0.480  -0.480  -0.478  -0.477  -0.474
 -0.472  -0.471  -0.470  -0.469  -0.468  -0.467  -0.465  -0.464
 -0.464  -0.464  -0.463  -0.462  -0.461  -0.460  -0.458  -0.456
 -0.456  -0.455  -0.452  -0.450  -0.448  -0.444  -0.444  -0.442
 -0.442  -0.441  -0.440  -0.439  -0.438  -0.435  -0.435  -0.433
 -0.432  -0.430  -0.430  -0.427  -0.426  -0.425  -0.424  -0.424
 -0.423  -0.422  -0.421  -0.420  -0.418  -0.418  -0.418  -0.417
 -0.416  -0.416  -0.416  -0.415  -0.414  -0.414  -0.414  -0.413
 -0.410  -0.409  -0.409  -0.407  -0.401  -0.399  -0.399  -0.396
 -0.395  -0.391  -0.391  -0.388  -0.387  -0.386  -0.384  -0.382
 -0.381  -0.376  -0.373  -0.370  -0.369  -0.367  -0.366  -0.365
 -0.363  -0.361  -0.360  -0.359  -0.359  -0.358  -0.357  -0.355
 -0.355  -0.355  -0.355  -0.353  -0.353  -0.352  -0.352  -0.350
 -0.350  -0.348  -0.348  -0.348  -0.345  -0.345  -0.344  -0.342
 -0.341  -0.340  -0.340  -0.339  -0.337  -0.336  -0.336  -0.333
 -0.333  -0.331  -0.330  -0.329  -0.328  -0.324  -0.324  -0.321
 -0.309  -0.303  -0.299  -0.299  -0.289  -0.286  -0.273  -0.271
 -0.271  -0.270  -0.269  -0.268  -0.267  -0.265  -0.264  -0.262
 -0.262  -0.261  -0.258  -0.258  -0.257  -0.255  -0.254  -0.250
 -0.247  -0.247  -0.246  -0.244  -0.224  -0.222  -0.213  -0.212
 -0.211  -0.206  -0.204  -0.204  -0.202  -0.199
 -- Virtual --
 -0.124  -0.119  -0.118  -0.113  -0.109  -0.106  -0.075  -0.075
 -0.073  -0.069  -0.062  -0.059  -0.052  -0.050  -0.025  -0.022
 -0.021  -0.020  -0.018  -0.016  -0.015  -0.013  -0.013  -0.012
 -0.011  -0.010  -0.009  -0.006  -0.005  -0.003  -0.002   0.001
  0.015   0.015   0.037   0.038   0.041   0.042   0.045   0.046
  0.048   0.052   0.054   0.057   0.061   0.065   0.065   0.068
  0.071   0.075   0.077   0.079   0.080   0.085   0.090   0.091
  0.093   0.096   0.097   0.100   0.100   0.102   0.104   0.106
  0.108   0.110   0.113   0.114   0.115   0.117   0.121   0.124
  0.125   0.127   0.127   0.129   0.133   0.134   0.134   0.137
  0.138   0.145   0.148   0.148   0.150   0.154   0.156   0.157
  0.158   0.159   0.160   0.160   0.163   0.166   0.167   0.167
  0.171   0.172   0.175   0.177   0.178   0.181   0.181   0.183
  0.184   0.184   0.185   0.187   0.188   0.190   0.192   0.192
  0.193   0.195   0.199   0.200   0.202   0.204   0.205   0.207
  0.208   0.210   0.213   0.213   0.217   0.218   0.219   0.219
  0.220   0.221   0.223   0.226   0.227   0.229   0.230   0.231
  0.232   0.232   0.234   0.235   0.238   0.239   0.239   0.242
  0.243   0.244   0.245   0.246   0.248   0.250   0.253   0.258
  0.262   0.264   0.265   0.271   0.274   0.276   0.278   0.283
  0.285   0.287   0.289   0.291   0.293   0.299   0.302   0.303
  0.305   0.306   0.310   0.312   0.313   0.316   0.317   0.318
  0.320   0.320   0.321   0.324   0.327   0.328   0.333   0.334
  0.336   0.338   0.341   0.342   0.343   0.345   0.346   0.349
  0.351   0.352   0.361   0.364   0.370   0.375   0.385   0.391
  0.394   0.395   0.399   0.399   0.402   0.403   0.408   0.409
  0.410   0.413   0.415   0.418   0.419   0.421   0.423   0.424
  0.430   0.430   0.431   0.436   0.439   0.442   0.443   0.445
  0.449   0.452   0.454   0.457   0.459   0.460   0.462   0.463
  0.466   0.467   0.467   0.469   0.472   0.472   0.473   0.475
  0.476   0.478   0.479   0.480   0.482   0.483   0.484   0.485
  0.487   0.488   0.490   0.491   0.492   0.494   0.494   0.495
  0.496   0.497   0.499   0.500   0.501   0.502   0.503   0.504
  0.506   0.506   0.507   0.509   0.509   0.510   0.511   0.513
  0.514   0.514   0.514   0.515   0.516   0.517   0.517   0.518
  0.519   0.519   0.522   0.523   0.524   0.525   0.526   0.527
  0.528   0.528   0.529   0.530   0.531   0.532   0.533   0.534
  0.534   0.535   0.536   0.537   0.538   0.538   0.538   0.540
  0.540   0.541   0.542   0.544   0.544   0.544   0.545   0.546
  0.546   0.548   0.548   0.549   0.549   0.551   0.552   0.552
  0.553   0.553   0.555   0.555   0.556   0.557   0.558   0.559
  0.559   0.560   0.561   0.562   0.562   0.564   0.564   0.565
  0.566   0.567   0.568   0.569   0.569   0.570   0.571   0.571
  0.572   0.574   0.575   0.576   0.576   0.576   0.577   0.578
  0.579   0.580   0.580   0.582   0.583   0.583   0.584   0.584
  0.585   0.586   0.587   0.588   0.588   0.589   0.591   0.591
  0.592   0.593   0.594   0.596   0.596   0.597   0.598   0.599
  0.600   0.602   0.603   0.604   0.605   0.606   0.607   0.608
  0.610   0.610   0.611   0.612   0.612   0.613   0.614   0.615
  0.617   0.618   0.619   0.620   0.622   0.623   0.624   0.625
  0.627   0.628   0.630   0.630   0.631   0.632   0.634   0.634
  0.635   0.635   0.636   0.638   0.638   0.639   0.640   0.642
  0.642   0.644   0.645   0.646   0.647   0.648   0.649   0.650
  0.651   0.653   0.653   0.655   0.656   0.656   0.658   0.658
  0.660   0.660   0.661   0.662   0.663   0.664   0.664   0.665
  0.666   0.667   0.667   0.669   0.670   0.670   0.671   0.672
  0.672   0.673   0.674   0.675   0.676   0.676   0.677   0.679
  0.681   0.683   0.684   0.686   0.686   0.687   0.689   0.689
  0.691   0.692   0.692   0.693   0.695   0.695   0.696   0.698
  0.699   0.701   0.701   0.702   0.703   0.703   0.706   0.706
  0.707   0.708   0.709   0.710   0.712   0.713   0.714   0.716
  0.718   0.719   0.720   0.722   0.723   0.726   0.726   0.727
  0.729   0.730   0.731   0.732   0.733   0.734   0.735   0.736
  0.738   0.741   0.741   0.742   0.744   0.744   0.747   0.750
  0.751   0.752   0.754   0.756   0.757   0.758   0.758   0.760
  0.760   0.762   0.764   0.766   0.767   0.768   0.768   0.769
  0.771   0.773   0.773   0.775   0.776   0.777   0.778   0.780
  0.780   0.782   0.782   0.783   0.785   0.786   0.787   0.788
  0.789   0.790   0.793   0.794   0.794   0.795   0.796   0.797
  0.798   0.799   0.801   0.803   0.803   0.805   0.805   0.806
  0.806   0.808   0.810   0.810   0.811   0.813   0.813   0.814
  0.815   0.815   0.817   0.817   0.818   0.819   0.819   0.821
  0.822   0.823   0.823   0.824   0.824   0.825   0.826   0.827
  0.828   0.830   0.831   0.831   0.832   0.834   0.836   0.837
  0.839   0.842   0.843   0.844   0.848   0.849   0.851   0.853
  0.855   0.856   0.859   0.860   0.863   0.866   0.868   0.871
  0.872   0.874   0.876   0.878   0.879   0.886   0.888   0.891
  0.894   0.896   0.899   0.901   0.904   0.906   0.907   0.910
  0.913   0.915   0.916   0.917   0.921   0.922   0.924   0.927
  0.929   0.929   0.930   0.932   0.935   0.935   0.936   0.937
  0.938   0.940   0.942   0.943   0.945   0.947   0.949   0.950
  0.952   0.953   0.959   0.959   0.964   0.965   0.970   0.973
  0.974   0.979   0.981   0.982   0.986   0.988   0.990   0.992
  0.995   0.998   0.999   1.002   1.003   1.005   1.009   1.011
  1.012   1.014   1.015   1.016   1.018   1.021   1.021   1.022
  1.024   1.025   1.027   1.028   1.029   1.032   1.032   1.033
  1.034   1.038   1.039   1.040   1.040   1.044   1.045   1.046
  1.048   1.049   1.049   1.051   1.054   1.056   1.057   1.058
  1.060   1.064   1.066   1.067   1.068   1.070   1.071   1.073
  1.074   1.078   1.079   1.081   1.083   1.084   1.085   1.086
  1.088   1.090   1.090   1.092   1.093   1.095   1.097   1.098
  1.099   1.101   1.103   1.104   1.108   1.109   1.110   1.111
  1.113   1.115   1.116   1.119   1.122   1.123   1.126   1.130
  1.132   1.135   1.137   1.141   1.143   1.143   1.145   1.148
  1.149   1.151   1.154   1.156   1.157   1.158   1.160   1.161
  1.163   1.164   1.165   1.167   1.169   1.171   1.171   1.172
  1.174   1.176   1.177   1.179   1.181   1.182   1.182   1.184
  1.186   1.188   1.190   1.196   1.196   1.197   1.201   1.202
  1.205   1.208   1.210   1.211   1.212   1.215   1.217   1.219
  1.222   1.222   1.225   1.230   1.232   1.237   1.242   1.245
  1.248   1.249   1.253   1.255   1.257   1.260   1.262   1.264
  1.264   1.267   1.268   1.270   1.271   1.273   1.274   1.275
  1.277   1.280   1.281   1.283   1.285   1.287   1.288   1.289
  1.294   1.295   1.296   1.297   1.302   1.304   1.304   1.309
  1.310   1.315   1.318   1.324   1.329   1.331   1.334   1.335
  1.337   1.338   1.340   1.341   1.346   1.349   1.351   1.352
  1.354   1.355   1.358   1.359   1.360   1.362   1.366   1.370
  1.374   1.375   1.377   1.379   1.380   1.382   1.383   1.387
  1.394   1.397   1.398   1.400   1.403   1.405   1.405   1.407
  1.408   1.410   1.411   1.415   1.417   1.419   1.423   1.425
  1.427   1.431   1.435   1.436   1.441   1.449   1.449   1.452
  1.453   1.456   1.458   1.460   1.461   1.463   1.465   1.468
  1.468   1.469   1.470   1.473   1.475   1.475   1.477   1.478
  1.480   1.482   1.483   1.486   1.487   1.490   1.491   1.495
  1.495   1.499   1.504   1.504   1.505   1.506   1.510   1.515
  1.519   1.519   1.522   1.523   1.527   1.533   1.534   1.537
  1.541   1.543   1.545   1.550   1.550   1.552   1.553   1.556
  1.559   1.562   1.563   1.565   1.568   1.570   1.572   1.573
  1.574   1.575   1.578   1.581   1.583   1.584   1.587   1.588
  1.589   1.592   1.593   1.597   1.600   1.603   1.607   1.612
  1.613   1.622   1.624   1.629   1.631   1.635   1.637   1.638
  1.641   1.649   1.651   1.657   1.661   1.666   1.667   1.670
  1.671   1.675   1.679   1.682   1.688   1.691   1.693   1.696
  1.698   1.699   1.702   1.703   1.705   1.708   1.709   1.711
  1.715   1.718   1.721   1.723   1.724   1.725   1.727   1.729
  1.734   1.735   1.735   1.738   1.739   1.740   1.740   1.743
  1.744   1.746   1.746   1.751   1.752   1.754   1.756   1.757
  1.759   1.760   1.762   1.764   1.764   1.766   1.767   1.768
  1.769   1.770   1.771   1.772   1.773   1.775   1.776   1.778
  1.778   1.780   1.781   1.782   1.783   1.784   1.786   1.787
  1.789   1.790   1.792   1.792   1.793   1.795   1.796   1.797
  1.799   1.801   1.802   1.802   1.804   1.805   1.807   1.808
  1.810   1.811   1.815   1.816   1.817   1.818   1.821   1.824
  1.827   1.828   1.829   1.833   1.833   1.837   1.838   1.840
  1.844   1.846   1.848   1.850   1.851   1.853   1.855   1.856
  1.858   1.859   1.863   1.864   1.866   1.867   1.870   1.873
  1.873   1.875   1.876   1.879   1.880   1.881   1.882   1.883
  1.886   1.887   1.890   1.892   1.895   1.898   1.901   1.901
  1.904   1.906   1.907   1.910   1.913   1.913   1.915   1.920
  1.922   1.923   1.927   1.928   1.930   1.931   1.933   1.937
  1.938   1.939   1.942   1.943   1.944   1.947   1.948   1.949
  1.950   1.954   1.955   1.957   1.961   1.962   1.968   1.969
  1.972   1.974   1.976   1.978   1.979   1.981   1.983   1.985
  1.986   1.986   1.988   1.990   1.990   1.994   1.996   1.997
  1.999   2.001   2.001   2.002   2.004   2.004   2.006   2.008
  2.009   2.011   2.012   2.013   2.014   2.016   2.017   2.017
  2.018   2.019   2.021   2.022   2.022   2.024   2.025   2.027
  2.028   2.030   2.030   2.032   2.034   2.035   2.037   2.038
  2.038   2.039   2.040   2.041   2.041   2.043   2.044   2.045
  2.046   2.047   2.048   2.049   2.050   2.051   2.053   2.053
  2.054   2.056   2.057   2.057   2.060   2.063   2.063   2.064
  2.066   2.068   2.069   2.071   2.071   2.072   2.073   2.075
  2.077   2.078   2.081   2.083   2.084   2.086   2.086   2.088
  2.089   2.090   2.092   2.094   2.097   2.099   2.102   2.103
  2.105   2.106   2.109   2.109   2.112   2.114   2.116   2.120
  2.121   2.124   2.128   2.130   2.132   2.137   2.138   2.140
  2.145   2.150   2.151   2.154   2.156   2.158   2.165   2.166
  2.178   2.181   2.186   2.189   2.191   2.197   2.201   2.202
  2.206   2.208   2.212   2.213   2.219   2.220   2.220   2.224
  2.225   2.227   2.229   2.233   2.238   2.239   2.243   2.245
  2.252   2.253   2.253   2.257   2.257   2.259   2.262   2.266
  2.268   2.270   2.272   2.275   2.276   2.279   2.279   2.281
  2.285   2.288   2.289   2.292   2.294   2.295   2.298   2.301
  2.303   2.305   2.307   2.309   2.311   2.313   2.316   2.320
  2.321   2.323   2.326   2.327   2.330   2.331   2.332   2.334
  2.337   2.342   2.342   2.348   2.351   2.352   2.354   2.355
  2.357   2.357   2.360   2.362   2.364   2.365   2.367   2.368
  2.371   2.372   2.373   2.376   2.377   2.378   2.379   2.382
  2.383   2.385   2.387   2.388   2.392   2.392   2.393   2.396
  2.397   2.398   2.399   2.400   2.403   2.405   2.405   2.407
  2.410   2.412   2.413   2.415   2.416   2.418   2.419   2.424
  2.427   2.428   2.431   2.435   2.437   2.440   2.441   2.442
  2.446   2.449   2.451   2.452   2.453   2.455   2.457   2.460
  2.461   2.464   2.466   2.470   2.471   2.474   2.476   2.481
  2.483   2.485   2.487   2.488   2.489   2.490   2.490   2.494
  2.495   2.498   2.499   2.500   2.501   2.503   2.504   2.508
  2.510   2.511   2.512   2.512   2.518   2.518   2.520   2.522
  2.524   2.527   2.528   2.529   2.531   2.534   2.536   2.537
  2.538   2.542   2.546   2.550   2.552   2.558   2.561   2.562
  2.566   2.570   2.572   2.576   2.579   2.581   2.583   2.584
  2.588   2.591   2.591   2.595   2.596   2.599   2.600   2.604
  2.607   2.610   2.611   2.612   2.614   2.614   2.616   2.618
  2.620   2.620   2.622   2.627   2.629   2.631   2.632   2.633
  2.636   2.636   2.638   2.640   2.641   2.643   2.644   2.646
  2.646   2.650   2.651   2.653   2.655   2.658   2.660   2.662
  2.663   2.665   2.668   2.669   2.670   2.673   2.674   2.675
  2.677   2.678   2.680   2.680   2.685   2.686   2.689   2.689
  2.690   2.694   2.696   2.698   2.700   2.704   2.705   2.706
  2.709   2.712   2.714   2.714   2.717   2.718   2.724   2.725
  2.727   2.730   2.731   2.732   2.739   2.740   2.744   2.744
  2.746   2.747   2.751   2.753   2.754   2.755   2.758   2.763
  2.764   2.765   2.769   2.770   2.770   2.774   2.775   2.778
  2.780   2.783   2.785   2.786   2.788   2.790   2.791   2.795
  2.798   2.799   2.802   2.805   2.809   2.814   2.816   2.819
  2.820   2.827   2.829   2.831   2.833   2.835   2.838   2.840
  2.842   2.843   2.846   2.849   2.852   2.855   2.856   2.859
  2.862   2.863   2.864   2.868   2.868   2.870   2.872   2.875
  2.876   2.878   2.881   2.884   2.885   2.887   2.890   2.891
  2.892   2.894   2.896   2.897   2.899   2.902   2.903   2.903
  2.905   2.907   2.909   2.910   2.914   2.915   2.916   2.917
  2.921   2.922   2.923   2.924   2.925   2.928   2.931   2.933
  2.937   2.938   2.939   2.941   2.944   2.947   2.949   2.954
  2.954   2.964   2.966   2.967   2.968   2.972   2.973   2.981
  2.986   2.987   2.990   2.993   2.997   3.000   3.003   3.006
  3.007   3.011   3.015   3.017   3.019   3.022   3.023   3.025
  3.029   3.029   3.030   3.036   3.037   3.040   3.042   3.043
  3.044   3.048   3.053   3.053   3.056   3.059   3.060   3.063
  3.065   3.071   3.078   3.079   3.083   3.085   3.089   3.109
  3.115   3.122   3.128   3.133   3.136   3.137   3.151   3.154
  3.160   3.167   3.170   3.174   3.175   3.180   3.189   3.191
  3.194   3.203   3.209   3.210   3.221   3.228   3.236   3.240
  3.242   3.247   3.248   3.251   3.257   3.266   3.276   3.286
  3.295   3.298   3.302   3.306   3.316   3.319   3.329   3.335
  3.337   3.341   3.343   3.346   3.347   3.356   3.370   3.386
  3.396   3.402   3.406   3.408   3.413   3.422   3.429   3.438
  3.442   3.450   3.457   3.465   3.466   3.483   3.486   3.500
  3.503   3.507   3.516   3.522   3.523   3.527   3.532   3.536
  3.556   3.561   3.561   3.567   3.570   3.576   3.581   3.608
  3.612   3.629   3.693   3.694   3.860   3.875   3.969   4.034
  4.064   4.077   4.084   4.085   4.091   4.093   4.095   4.097
  4.101   4.101   4.108   4.110   4.112   4.113   4.117   4.125
  4.129   4.130   4.135   4.137   4.139   4.144   4.148   4.151
  4.152   4.160   4.161   4.166   4.171   4.173   4.179   4.182
  4.188   4.194   4.197   4.203   4.203   4.206   4.233   4.234
  4.241   4.245   4.249   4.251   4.255   4.256   4.258   4.260
  4.265   4.271   4.276   4.278   4.282   4.284   4.291   4.294
  4.295   4.300   4.309   4.326   4.359   4.383   4.388   4.389
  4.392   4.395   4.401   4.405   4.409   4.410   4.414   4.417
  4.420   4.422   4.422   4.430   4.433   4.453   4.456   4.462
  4.478   4.503   4.504   4.520   4.528   4.534   4.544   4.549
  4.556   4.562   4.588   4.620   4.627   4.628   4.636   4.639
  4.646   4.654   4.665   4.666   4.693   4.694   4.695   4.698
  4.700   4.703   4.707   4.712   4.717   4.751   4.779   4.797
  4.841   4.848   4.856   4.865   4.867   4.873   4.879   4.893
  4.901   4.910   4.959   4.969   4.969   4.976   4.978   4.985
  4.991   4.993   4.994   5.009   5.154   5.177   5.181   5.188
  5.195   5.199   5.200   5.213   5.322   5.332   5.333   5.346
  5.348   5.372
 --------------------------------------------------------------
 
          Ground-State Mulliken Net Atomic Charges

     Atom                 Charge (a.u.)
  ----------------------------------------
      1 O                    -0.483077
      2 C                    -0.095325
      3 H                     0.126165
      4 H                     0.125114
      5 H                     0.137287
      6 O                    -0.458459
      7 C                     0.620688
      8 C                    -0.290038
      9 H                     0.132061
     10 H                     0.134934
     11 C                    -0.187618
     12 H                     0.088986
     13 H                     0.134056
     14 C                    -0.170945
     15 H                     0.136047
     16 H                     0.104654
     17 C                     0.002856
     18 C                     0.080170
     19 C                    -0.099766
     20 H                     0.093853
     21 C                    -0.080360
     22 H                     0.093222
     23 C                    -0.092292
     24 H                     0.087425
     25 C                    -0.090672
     26 H                     0.093056
     27 C                    -0.110227
     28 H                     0.088050
     29 C                     0.004675
     30 C                    -0.001323
     31 C                    -0.014153
     32 C                    -0.029951
     33 C                     0.009749
     34 C                    -0.003104
     35 C                     0.022339
     36 C                     0.000599
     37 C                    -0.007575
     38 C                    -0.029069
     39 C                    -0.073124
     40 C                     0.012117
     41 C                    -0.041700
     42 C                    -0.011151
     43 C                     0.028817
     44 C                     0.021718
     45 C                    -0.069126
     46 C                     0.014691
     47 C                    -0.001951
     48 C                    -0.014912
     49 C                     0.000923
     50 C                     0.002906
     51 C                    -0.007337
     52 C                    -0.004631
     53 C                     0.016544
     54 C                     0.005829
     55 C                     0.023253
     56 C                    -0.011557
     57 C                    -0.006810
     58 C                    -0.009847
     59 C                    -0.012415
     60 C                     0.003639
     61 C                    -0.002119
     62 C                    -0.016353
     63 C                     0.022308
     64 C                    -0.003694
     65 C                     0.006529
     66 C                     0.005965
     67 C                     0.016490
     68 C                     0.028656
     69 C                    -0.000408
     70 C                     0.016339
     71 C                    -0.030834
     72 C                     0.036264
     73 C                    -0.020897
     74 C                    -0.010498
     75 C                     0.025701
     76 C                    -0.014585
     77 C                    -0.018298
     78 C                     0.005671
     79 C                    -0.008170
     80 C                    -0.014747
     81 C                     0.004784
     82 C                    -0.000550
     83 C                     0.002374
     84 C                     0.014250
     85 C                    -0.017005
     86 C                     0.001384
     87 C                     0.017200
     88 C                     0.008882
     89 O                    -0.454561
     90 C                    -0.082934
     91 H                     0.123877
     92 H                     0.135803
     93 H                     0.126650
     94 O                    -0.483693
     95 C                     0.586405
     96 C                    -0.278068
     97 H                     0.133743
     98 H                     0.132186
     99 C                    -0.174670
    100 H                     0.112477
    101 H                     0.142529
    102 C                    -0.173278
    103 H                     0.111187
    104 H                     0.106938
    105 C                    -0.008793
    106 C                     0.098972
    107 C                    -0.109734
    108 H                     0.087523
    109 C                    -0.092266
    110 H                     0.095971
    111 C                    -0.079727
    112 H                     0.096573
    113 C                    -0.102754
    114 H                     0.093472
    115 C                    -0.102113
    116 H                     0.092648
    117 C                    -0.009671
    118 C                    -0.000303
    119 C                     0.015165
    120 C                    -0.019447
    121 C                    -0.009096
    122 C                     0.006564
    123 C                     0.022216
    124 C                     0.007921
    125 C                     0.016488
    126 C                     0.003457
    127 C                    -0.092821
    128 C                     0.001307
    129 C                    -0.012714
    130 C                     0.014068
    131 C                     0.014080
    132 C                     0.004758
    133 C                    -0.083616
    134 C                     0.040200
    135 C                    -0.026819
    136 C                     0.006700
    137 C                     0.015869
    138 C                    -0.011668
    139 C                    -0.017495
    140 C                    -0.006645
    141 C                     0.037642
    142 C                     0.030667
    143 C                     0.005523
    144 C                    -0.008338
    145 C                    -0.019779
    146 C                     0.002161
    147 C                    -0.008245
    148 C                     0.067896
    149 C                     0.010774
    150 C                     0.005352
    151 C                    -0.020312
    152 C                    -0.025073
    153 C                    -0.025202
    154 C                     0.015816
    155 C                     0.017321
    156 C                    -0.017749
    157 C                     0.011236
    158 C                     0.003032
    159 C                    -0.037774
    160 C                    -0.038306
    161 C                     0.003293
    162 C                    -0.009076
    163 C                     0.017539
    164 C                     0.003478
    165 C                    -0.019546
    166 C                    -0.005891
    167 C                     0.019918
    168 C                     0.006998
    169 C                     0.002277
    170 C                     0.011749
    171 C                    -0.011838
    172 C                    -0.007276
    173 C                    -0.014304
    174 C                     0.015125
    175 C                     0.007035
    176 C                    -0.031527
  ----------------------------------------
  Sum of atomic charges =     0.000000

 -----------------------------------------------------------------
                    Cartesian Multipole Moments
 -----------------------------------------------------------------
    Charge (ESU x 10^10)
                 0.0000
    Dipole Moment (Debye)
         X      -2.6797      Y       0.6681      Z      -1.7018
       Tot       3.2440
    Quadrupole Moments (Debye-Ang)
        XX    -794.1739     XY      28.3577     YY    -793.5820
        XZ      -2.8571     YZ      -7.5902     ZZ    -800.1005
    Octopole Moments (Debye-Ang^2)
       XXX    -335.0065    XXY    -165.2096    XYY    -165.6323
       YYY     169.1705    XXZ     -91.7767    XYZ     -58.9070
       YYZ      -8.9208    XZZ     -22.6540    YZZ      12.7399
       ZZZ    -132.7829
    Hexadecapole Moments (Debye-Ang^3)
      XXXX -128577.6985   XXXY    4442.3385   XXYY  -27850.2731
      XYYY    2855.1862   YYYY  -55535.8232   XXXZ     246.5912
      XXYZ     118.1003   XYYZ     -72.7245   YYYZ    -558.1664
      XXZZ  -24906.7109   XYZZ     753.1951   YYZZ  -12533.5551
      XZZZ      65.4371   YZZZ     -19.3924   ZZZZ  -20434.7238
 -----------------------------------------------------------------
Archival summary:
1\1\mn251\SP\ProcedureUnspecified\6-31G**\428\afmv_a\FriOct1207:47:212018FriOct1207:47:212018\0\\#,ProcedureUnspecified,6-31G**,\\0,1\C\C,1,1.41823\C,2,1.38241,1,107.68\C,3,1.40432,2,108.223,1,-6.41727,0\C,4,1.39877,3,109.246,2,5.15706,0\C,5,1.38937,4,125.518,3,-151.02,0\C,4,1.39942,3,125.208,2,-148.73,0\C,6,1.40304,5,119.949,4,131.665,0\C,7,1.40606,4,117.264,3,14.3551,0\C,9,1.39189,7,113.12,4,139.023,0\C,10,1.38678,9,119.968,7,-142.197,0\C,11,1.36791,10,122.202,9,136.68,0\C,12,1.3988,11,108.079,10,-144.942,0\C,13,1.40597,12,120.734,11,137.68,0\C,9,1.40668,7,119.088,4,-8.93982,0\C,15,1.3924,9,121.854,7,143.942,0\C,16,1.39636,15,109.104,9,-143.779,0\C,17,1.40323,16,120.453,15,140.023,0\C,12,1.40818,11,117.96,10,-5.98022,0\C,19,1.38101,12,122.072,11,-133.57,0\C,20,1.38841,19,119.498,12,0.119523,0\C,20,1.39904,19,110.469,12,139.93,0\C,22,1.3802,20,108.942,19,1.12576,0\C,23,1.38154,22,119.704,20,-150.489,0\C,21,1.40754,20,123.816,19,140.383,0\C,13,1.41253,12,109.255,11,-1.12282,0\C,26,1.38812,13,106.104,12,-0.017739,0\C,26,1.40779,13,121.124,12,141.497,0\C,28,1.39707,26,121.041,13,-2.32585,0\C,29,1.39998,28,119.655,26,3.83042,0\C,30,1.41205,29,118.415,28,-143.553,0\C,25,1.41337,21,119.962,20,-3.06796,0\C,32,1.40573,25,116.823,21,2.80464,0\C,33,1.34579,32,105.337,25,-146.059,0\C,34,1.38363,33,113.2,32,-0.37414,0\C,35,1.39061,34,106.359,33,-0.044443,0\C,36,1.37059,35,122.682,34,137.54,0\C,37,1.37497,36,119.455,35,2.90075,0\C,38,1.39442,37,119.061,36,-0.740056,0\C,39,1.38042,38,121.715,37,0.384212,0\C,39,1.38444,38,119.411,37,-137.315,0\C,34,1.39623,33,117.949,32,148.426,0\C,41,1.40787,39,117.564,38,-5.01808,0\C,43,1.39732,41,123.342,39,1.65837,0\C,44,1.33683,43,119.123,41,1.45631,0\C,45,1.37694,44,123.657,43,136.504,0\C,8,1.41354,6,118.687,5,9.94321,0\C,47,1.41238,8,122.329,6,-3.05454,0\C,23,1.4153,22,105.899,20,-1.08827,0\C,49,1.39991,23,120.363,22,-148.325,0\C,15,1.4182,9,122.252,7,0.256356,0\C,51,1.39623,15,108.398,9,143.198,0\C,52,1.40032,51,122.158,15,-138.014,0\C,53,1.37095,52,118.72,51,0.50442,0\C,53,1.42211,52,120.195,51,137.966,0\C,55,1.35254,53,122.232,52,1.15691,0\C,56,1.3853,55,118.888,53,-137.128,0\C,37,1.42874,36,124.174,35,-141.188,0\C,50,1.45399,49,117.995,23,-5.53857,0\C,59,1.46808,50,121.274,49,6.41637,0\C,59,1.51371,50,131.467,49,-70.8893,0\C,61,1.53617,59,124.292,50,-155.441,0\H,62,1.09676,61,108.78,59,-121.857,0\H,62,1.09713,61,108.068,59,-4.15235,0\C,61,1.5394,59,116.977,50,-5.59377,0\C,65,1.39779,61,121.812,59,-61.4653,0\H,66,1.0858,65,118.553,61,2.54281,0\C,66,1.40029,65,121.16,61,179.713,0\H,68,1.08573,66,124.49,65,179.928,0\C,65,1.41455,61,119.318,59,118.118,0\H,70,1.08655,65,118.753,61,-4.42239,0\C,70,1.38074,65,121.744,61,-178.043,0\H,72,1.08598,70,121.427,65,170.313,0\C,72,1.4008,70,119.196,65,0.35648,0\H,74,1.08532,72,120.461,70,178.467,0\C,62,1.54003,61,116.269,59,122.927,0\H,76,1.09684,62,113.039,61,53.0118,0\H,76,1.09699,62,111.066,61,-59.461,0\C,76,1.61198,62,115.25,61,174.83,0\H,79,1.09604,76,111.869,62,42.7422,0\H,79,1.09677,76,108.358,62,160.866,0\C,79,1.51874,76,113.172,62,-76.6083,0\O,82,1.19649,79,121.276,76,1.65727,0\O,82,1.37302,79,115.061,76,176.842,0\C,84,1.48079,82,114.359,79,-179.672,0\H,85,1.09686,84,111.323,82,-39.914,0\H,85,1.0969,84,113.932,82,-167.276,0\H,85,1.09758,84,109.644,82,76.5185,0\H,53,2.75127,52,128.391,51,-103.747,0\C,89,1.08575,53,107.547,52,70.2645,0\C,90,1.39972,89,122.991,53,-44.5123,0\H,91,1.0853,90,122.535,89,-9.61095,0\C,91,1.41448,90,119.562,89,178.753,0\H,93,1.08581,91,120.061,90,172.43,0\C,93,1.38625,91,121.806,90,-2.47224,0\C,95,1.39274,93,119.65,91,4.0171,0\H,96,1.08579,95,118.198,93,176.732,0\C,90,1.4188,89,118.524,53,135.402,0\H,98,1.08675,90,116.622,89,1.50991,0\C,95,1.5034,93,115.923,91,-175.601,0\C,100,1.53689,95,120.919,93,132.973,0\C,101,1.47236,100,130.444,95,150.154,0\C,102,1.42966,101,124.7,100,62.7661,0\C,103,1.39209,102,122.007,101,143.003,0\C,104,1.39073,103,112.142,102,-137.461,0\C,105,1.39923,104,121.838,103,144.517,0\C,106,1.3795,105,117.546,104,-135.492,0\C,107,1.39228,106,124.638,105,-5.75958,0\C,106,1.39239,105,120.309,104,0.947964,0\C,108,1.39388,107,119.96,106,139.235,0\C,110,1.35524,108,108.434,107,-136.192,0\C,109,1.3959,106,120.84,105,-1.94644,0\C,107,1.39993,106,108.733,105,144.801,0\C,113,1.35764,107,119.166,106,-143.629,0\C,113,1.39405,107,108.08,106,-3.00775,0\C,114,1.39648,113,121.754,107,134.274,0\C,116,1.38706,114,110.285,113,-143.302,0\C,117,1.37355,116,106.954,114,-1.82088,0\C,118,1.36977,117,108.444,116,-0.368645,0\C,118,1.38485,117,119.819,116,145.341,0\C,120,1.35265,118,117.825,117,-132.924,0\C,120,1.39287,118,120.273,117,3.5517,0\C,117,1.40481,116,118.93,114,147.003,0\C,123,1.37506,117,121.092,116,-3.98996,0\C,116,1.40754,114,119.334,113,1.05526,0\C,125,1.38315,116,121.388,114,-142.063,0\C,125,1.38371,116,120.001,114,-3.79027,0\C,127,1.41131,125,109.217,116,-145.152,0\C,128,1.36571,127,115.204,125,140.777,0\C,129,1.39166,128,121.909,127,-135.866,0\C,130,1.38911,129,108.666,128,141.971,0\C,131,1.38106,130,111.291,129,6.8024,0\C,130,1.39649,129,118.29,128,1.5949,0\C,133,1.39159,130,118.932,129,136.245,0\C,134,1.38449,133,108.444,130,-139.642,0\C,135,1.39214,134,110.163,133,-1.17289,0\C,136,1.40607,135,105.818,134,0.25805,0\C,137,1.40678,136,120.351,135,143.492,0\C,134,1.41051,133,122.283,130,-0.0474013,0\C,139,1.39063,134,118.455,133,3.05235,0\C,121,1.41279,120,111.054,118,142.959,0\C,141,1.3922,121,117.57,120,-145.155,0\C,142,1.39292,141,120.268,121,137.303,0\C,143,1.40762,142,119.533,141,-4.53571,0\C,103,1.41616,102,117.565,101,11.3629,0\C,145,1.39422,103,119.499,102,-0.110581,0\C,146,1.38026,145,119.337,103,134.231,0\C,147,1.40322,146,122.329,145,7.79267,0\C,148,1.33448,147,118.795,146,-8.36321,0\C,124,1.41672,123,106.044,117,-136.889,0\C,141,1.4168,121,105.531,120,-3.84878,0\C,149,1.41784,148,121.284,147,5.41856,0\C,123,1.42093,117,115.108,116,-140.465,0\C,153,1.39385,123,107.885,117,138.427,0\C,154,1.3981,153,124.16,123,-142.308,0\C,155,1.40021,154,118.055,153,-0.222348,0\C,155,1.41037,154,120.657,153,138.865,0\C,157,1.42558,155,106.405,154,-142.166,0\C,158,1.37611,157,119.225,155,148.193,0\C,143,1.47781,142,111.455,141,-153.624,0\C,100,1.58536,95,109.887,93,-86.9845,0\H,161,1.09707,100,107.982,95,78.9797,0\H,161,1.09741,100,104.687,95,-169.436,0\C,161,1.51771,100,114.184,95,-42.8832,0\H,164,1.09631,161,113.872,100,90.8001,0\H,164,1.09687,161,114.285,100,-40.5624,0\C,164,1.58209,161,108.72,100,-155.731,0\H,167,1.09665,164,109.89,161,-53.8187,0\H,167,1.09742,164,115.028,161,68.3272,0\C,167,1.58773,164,113.971,161,-178.737,0\O,170,1.25,167,127.482,164,37.7398,0\O,170,1.36859,167,106.409,164,-142.233,0\C,172,1.41244,170,122.477,167,-176.478,0\H,173,1.09679,172,110.35,170,155.852,0\H,173,1.09691,172,103.325,170,30.872,0\H,173,1.09724,172,108.107,170,-88.5061,0\\\@

 Total job time:  859.22s(wall), 8248.26s(cpu) 
 Fri Oct 12 07:47:21 2018

        *************************************************************
        *                                                           *
        *  Thank you very much for using Q-Chem.  Have a nice day.  *
        *                                                           *
        *************************************************************


