
Running Job 1 of 1 ./7/29.qcin
qchem ./7/29.qcin_28522.0 /tmpu/cab_g/afmv_a/scratch_qchem/qchem28522/ 1
/tmpu/appuserlic/qchem4.4/serial-multicore/exe/qcprog.exe_s ./7/29.qcin_28522.0 /tmpu/cab_g/afmv_a/scratch_qchem/qchem28522/
Check license passed

                  Welcome to Q-Chem
     A Quantum Leap Into The Future Of Chemistry


 Q-Chem 4.4, Q-Chem, Inc., Pleasanton, CA (2016)

 Y. Shao,  Z. Gan,  E. Epifanovsky,  A. T. B. Gilbert,  M. Wormit,  
 J. Kussmann,  A. W. Lange,  A. Behn,  J. Deng,  X. Feng,  D. Ghosh,  
 M. Goldey,  P. R. Horn,  L. D. Jacobson,  I. Kaliman,  F. Rob,  
 R. Z. Khaliullin,  T. Kus,  A. Landau,  J. Liu,  E. I. Proynov,  Y. M. Rhee,  
 R. M. Richard,  M. A. Rohrdanz,  R. P. Steele,  E. J. Sundstrom,  
 H. L. Woodcock III,  P. M. Zimmerman,  D. Zuev,  B. Albrecht,  E. Alguire,  
 B. Austin,  S. A. Baeppler,  G. J. O. Beran,  Y. A. Bernard,  E. Berquist,  
 K. Brandhorst,  K. B. Bravaya,  S. T. Brown,  D. Casanova,  C.-M. Chang,  
 Y. Chen,  S. H. Chien,  K. D. Closser,  M. P. Coons,  D. L. Crittenden,  
 S. Dasgupta,  M. Diedenhofen,  R. A. DiStasio Jr.,  H. Do,  A. D. Dutoi,  
 R. G. Edgar,  P.-T. Fang,  S. Fatehi,  Q. Feng,  L. Fusti-Molnar,  
 A. Ghysels,  A. Golubeva-Zadorozhnaya,  J. Gomes,  A. Gunina,  
 M. W. D. Hanson-Heine,  P. H. P. Harbach,  A. W. Hauser,  J. E. Herr,  
 E. G. Hohenstein,  Z. C. Holden,  K. Hui,  T.-C. Jagau,  H. Ji,  B. Kaduk,  
 K. Khistyaev,  Jaehoon Kim,  Jihan Kim,  R. A. King,  P. Klunzinger,  
 K. Koh,  D. Kosenkov,  T. Kowalczyk,  C. M. Krauter,  A. Kunitsa,  
 K. U. Lao,  A. Laurent,  K. V. Lawler,  J. Lee,  D. Lefrancois,  S. Lehtola,  
 S. V. Levchenko,  C. Y. Lin,  Y.-S. Lin,  F. Liu,  E. Livshits,  
 R. C. Lochan,  A. Luenser,  P. Manohar,  S. F. Manzer,  S.-P. Mao,  Y. Mao,  
 N. Mardirossian,  A. V. Marenich,  L. A. Martinez-Martinez,  S. A. Maurer,  
 N. J. Mayhall,  J.-M. Mewes,  A. F. Morrison,  K. Nanda,  T. S. Nguyen-Beck,  
 C. M. Oana,  R. Olivares-Amaya,  D. P. O'Neill,  J. A. Parkhill,  
 T. M. Perrine,  R. Peverati,  P. A. Pieniazek,  F. Plasser,  A. Prociuk,  
 D. R. Rehn,  E. Rosta,  N. J. Russ,  N. Sergueev,  S. M. Sharada,  
 S. Sharma,  D. W. Small,  A. Sodt,  T. Stauch,  T. Stein,  D. Stuck,  
 Y.-C. Su,  A. J. W. Thom,  T. Tsuchimochi,  L. Vogt,  O. Vydrov,  T. Wang,  
 M. A. Watson,  J. Wenzel,  A. White,  C. F. Williams,  V. Vanovschi,  
 K. Yao,  S. Yeganeh,  S. R. Yost,  Z.-Q. You,  I. Y. Zhang,  X. Zhang,  
 Y. Zhao,  B. R. Brooks,  G. K. L. Chan,  D. M. Chipman,  C. J. Cramer,  
 W. A. Goddard III,  M. S. Gordon,  W. J. Hehre,  A. Klamt,  
 H. F. Schaefer III,  M. W. Schmidt,  C. D. Sherrill,  D. G. Truhlar,  
 A. Warshel,  X. Xu,  A. Aspuru-Guzik,  R. Baer,  A. T. Bell,  N. A. Besley,  
 J.-D. Chai,  A. Dreuw,  B. D. Dunietz,  T. R. Furlani,  S. R. Gwaltney,  
 C.-P. Hsu,  Y. Jung,  J. Kong,  D. S. Lambrecht,  W. Liang,  C. Ochsenfeld,  
 V. A. Rassolov,  L. V. Slipchenko,  J. E. Subotnik,  T. Van Voorhis,  
 J. M. Herbert,  A. I. Krylov,  P. M. W. Gill,  M. Head-Gordon

 Contributors to earlier versions of Q-Chem not listed above: 
 R. D. Adamson,  J. Baker,  E. F. C. Byrd,  A. K. Chakraborty,  C.-L. Cheng,  
 H. Dachsel,  R. J. Doerksen,  G. Hawkins,  A. Heyden,  S. Hirata,  
 G. Kedziora,  F. J. Keil,  C. Kelley,  P. P. Korambath,  W. Kurlancheek,  
 A. M. Lee,  M. S. Lee,  D. Liotard,  I. Lotan,  P. E. Maslen,  N. Nair,  
 D. Neuhauser,  R. Olson,  B. Peters,  J. Ritchie,  N. E. Schultz,  
 N. Shenvi,  A. C. Simmonett,  K. S. Thanthiriwatte,  Q. Wu,  W. Zhang

 Please cite Q-Chem as follows:
 Y. Shao et al., Mol. Phys. 113, 184-215 (2015)
 DOI: 10.1080/00268976.2014.952696

 Q-Chem 4.4.2 for Intel X86 Linux

 Parts of Q-Chem use Armadillo 5.200.1 (Boston Tea Smuggler).
 http://arma.sourceforge.net/

 Q-Chem begins on Fri Oct 12 08:01:47 2018  

Host: 
0

     Scratch files written to /tmpu/cab_g/afmv_a/scratch_qchem/qchem28522//
 Dec716 11556_ 22328  22283 4050   
Processing $rem in /tmpu/appuserlic/qchem4.4/serial-multicore/config/preferences.
 MEM_TOTAL  2000 
FILE_GEOM_ORG=        593

Checking the input file for inconsistencies... 	...done.

--------------------------------------------------------------
User input:
--------------------------------------------------------------
$comment
SP
$end

$rem
MEM_STATIC 5000
MEM_TOTAL 20000
JOBTYPE SP
EXCHANGE B3LYP
BASIS 6-31g(d,p)
$end

$molecule
0 1
O         -22.130000     -7.863000    -13.402000
C         -22.219000     -7.156000    -14.670000
H         -22.606000     -7.821000    -15.452000
H         -21.209000     -6.840000    -14.956000
H         -22.860000     -6.268000    -14.603000
O         -20.557000     -9.217000    -14.116000
C         -21.272000     -8.885000    -13.256000
C         -21.466000     -9.665000    -11.956000
H         -20.771000     -9.262000    -11.209000
H         -21.217000    -10.723000    -12.109000
C         -22.984000     -9.553000    -11.583000
H         -23.213000     -8.539000    -11.233000
H         -23.539000     -9.727000    -12.514000
C         -23.385000    -10.516000    -10.438000
H         -23.177000    -11.551000    -10.734000
H         -22.786000    -10.409000     -9.525000
C         -24.857000    -10.455000    -10.033000
C         -25.796000    -11.172000    -10.952000
C         -26.232000    -10.609000    -12.189000
H         -25.950000     -9.621000    -12.539000
C         -27.155000    -11.376000    -12.945000
H         -27.533000    -11.077000    -13.918000
C         -27.532000    -12.727000    -12.636000
H         -28.195000    -13.310000    -13.270000
C         -26.996000    -13.305000    -11.487000
H         -27.214000    -14.332000    -11.208000
C         -26.184000    -12.528000    -10.658000
H         -25.738000    -12.951000     -9.763000
C         -29.258000     -7.579000     -8.513000
C         -29.527000     -9.683000     -7.470000
C         -28.770000     -8.220000     -3.259000
C         -24.776000     -5.686000     -7.366000
C         -25.444000     -9.399000     -3.134000
C         -29.141000     -9.019000     -8.572000
C         -24.093000     -6.451000     -4.728000
C         -29.986000     -7.152000     -4.989000
C         -25.961000    -11.467000     -6.578000
C         -23.932000     -6.751000     -7.126000
C         -25.203000    -10.413000     -8.570000
C         -24.709000    -10.922000     -6.302000
C         -23.465000     -8.499000     -5.849000
C         -24.523000     -7.211000     -3.609000
C         -27.603000    -10.728000     -8.248000
C         -26.744000     -7.370000     -2.672000
C         -25.454000     -9.225000     -9.454000
C         -24.840000     -7.900000     -9.030000
C         -26.629000     -8.772000     -2.699000
C         -27.567000     -4.683000     -5.602000
C         -28.255000     -5.932000     -3.826000
C         -29.166000     -5.986000     -4.847000
C         -30.228000     -7.606000     -6.313000
C         -25.743000     -6.848000     -9.180000
C         -26.305000    -11.120000     -7.894000
C         -30.081000     -8.993000     -6.362000
C         -23.555000     -7.123000     -5.833000
C         -28.600000    -10.762000     -7.301000
C         -24.556000    -10.451000     -4.994000
C         -26.856000     -5.067000     -7.991000
C         -29.772000     -8.299000     -4.226000
C         -24.262000    -10.224000     -7.385000
C         -29.121000     -5.670000     -7.265000
C         -23.825000     -9.272000     -4.729000
C         -26.984000    -11.487000     -5.557000
C         -25.932000     -5.502000     -3.972000
C         -24.949000     -5.341000     -4.964000
C         -26.795000    -11.034000     -4.277000
C         -25.677000     -5.729000     -8.387000
C         -23.946000     -7.866000     -7.937000
C         -26.580000     -4.584000     -6.636000
C         -26.882000     -8.823000     -9.609000
C         -28.925000    -10.472000     -4.936000
C         -23.658000     -9.007000     -7.114000
C         -25.543000    -10.499000     -4.033000
C         -28.125000     -5.653000     -8.249000
C         -27.885000     -9.301000     -3.026000
C         -29.821000     -6.872000     -7.420000
C         -28.086000     -7.013000     -3.003000
C         -28.297000    -11.115000     -5.988000
C         -28.005000    -10.417000     -3.900000
C         -27.913000     -9.612000     -9.052000
C         -27.011000     -7.426000     -9.498000
C         -27.227000     -5.144000     -4.306000
C         -29.839000     -9.405000     -5.089000
C         -24.405000     -8.610000     -3.619000
C         -25.292000     -5.004000     -6.246000
C         -25.657000     -6.614000     -3.102000
C         -28.177000     -6.831000     -8.975000
C         -28.788000     -5.319000     -5.962000
O         -10.473000    -12.711000    -10.079000
C          -9.621000    -13.914000    -10.200000
H          -8.962000    -14.009000     -9.328000
H          -8.949000    -13.826000    -11.062000
H         -10.234000    -14.812000    -10.339000
O         -11.648000    -13.108000    -12.037000
C         -11.455000    -12.421000    -11.061000
C         -12.283000    -11.208000    -10.761000
H         -11.685000    -10.395000    -10.331000
H         -13.022000    -11.638000    -10.073000
C         -13.030000    -10.619000    -11.976000
H         -12.254000    -10.089000    -12.542000
H         -13.358000    -11.419000    -12.651000
C         -13.994000     -9.516000    -11.676000
H         -13.522000     -8.786000    -11.007000
H         -14.245000     -9.077000    -12.649000
C         -15.284000     -9.988000    -10.930000
C         -15.993000    -11.132000    -11.699000
C         -17.080000    -10.791000    -12.519000
H         -17.587000     -9.835000    -12.432000
C         -17.689000    -11.760000    -13.310000
H         -18.578000    -11.470000    -13.862000
C         -17.121000    -13.090000    -13.355000
H         -17.557000    -13.864000    -13.980000
C         -15.954000    -13.410000    -12.637000
H         -15.576000    -14.423000    -12.735000
C         -15.545000    -12.438000    -11.754000
H         -14.638000    -12.676000    -11.207000
C         -19.928000     -8.356000     -8.439000
C         -19.512000    -10.544000     -7.576000
C         -18.322000     -9.131000     -3.361000
C         -15.877000     -5.298000     -7.880000
C         -14.859000     -9.309000     -4.051000
C         -19.475000     -9.686000     -8.671000
C         -14.607000     -5.981000     -5.532000
C         -20.067000     -8.385000     -4.917000
C         -15.571000    -11.308000     -7.449000
C         -14.761000     -6.097000     -7.946000
C         -15.420000     -9.936000     -9.429000
C         -14.511000    -10.414000     -7.330000
C         -13.621000     -7.769000     -6.915000
C         -14.642000     -6.889000     -4.459000
C         -17.539000    -10.985000     -8.694000
C         -16.507000     -7.766000     -3.151000
C         -16.118000     -8.893000    -10.181000
C         -15.779000     -7.472000     -9.694000
C         -15.977000     -9.113000     -3.265000
C         -18.520000     -5.262000     -5.580000
C         -18.559000     -6.828000     -3.840000
C         -19.691000     -7.071000     -4.643000
C         -20.449000     -8.777000     -6.157000
C         -16.991000     -6.743000     -9.537000
C         -16.129000    -11.070000     -8.735000
C         -19.917000    -10.080000     -6.279000
C         -14.102000     -6.482000     -6.779000
C         -18.327000    -11.308000     -7.608000
C         -14.073000    -10.029000     -6.017000
C         -18.166000     -5.288000     -8.041000
C         -19.401000     -9.437000     -4.227000
C         -14.374000     -9.551000     -8.435000
C         -20.030000     -6.546000     -7.017000
C         -13.652000     -8.675000     -5.843000
C         -16.268000    -11.658000     -6.283000
C         -16.517000     -5.584000     -4.378000
C         -15.742000     -5.198000     -5.467000
C         -15.918000    -11.301000     -5.027000
C         -16.976000     -5.623000     -8.708000
C         -14.678000     -7.160000     -8.830000
C         -17.827000     -4.840000     -6.760000
C         -17.647000     -8.894000    -10.014000
C         -18.212000    -11.313000     -5.147000
C         -13.963000     -8.242000     -8.213000
C         -14.822000    -10.404000     -4.871000
C         -19.274000     -6.196000     -8.155000
C         -17.129000     -9.937000     -3.537000
C         -20.451000     -7.868000     -7.253000
C         -17.902000     -7.849000     -3.170000
C         -17.656000    -11.664000     -6.400000
C         -17.104000    -11.100000     -4.277000
C         -18.267000     -9.939000     -9.341000
C         -18.090000     -7.579000     -9.753000
C         -17.876000     -5.726000     -4.415000
C         -19.362000    -10.524000     -5.088000
C         -14.139000     -8.247000     -4.603000
C         -16.430000     -4.867000     -6.649000
C         -15.810000     -6.699000     -3.761000
C         -19.257000     -7.306000     -9.030000
C         -19.627000     -6.131000     -5.723000
$end

--------------------------------------------------------------
 ----------------------------------------------------------------
             Standard Nuclear Orientation (Angstroms)
    I     Atom           X                Y                Z
 ----------------------------------------------------------------
    1      O      -0.0243846242     4.9073323006     3.4003244604
    2      C       0.0093757084     5.7454628451     4.5885969166
    3      H      -0.1698966531     6.7943348071     4.3216755281
    4      H       1.0092835515     5.6692949127     5.0314679490
    5      H      -0.7311776601     5.4324554656     5.3352702648
    6      O       1.7862095615     5.8108300028     2.5501000211
    7      C       0.9103772033     5.0470532556     2.4470866198
    8      C       0.6023282915     4.2662318850     1.1698004909
    9      H       1.1190967313     3.3002532488     1.2270600239
   10      H       0.9915354054     4.8031570206     0.2951558652
   11      C      -0.9584139280     4.1815457290     1.0561828025
   12      H      -1.3543234540     3.4852337749     1.8055440704
   13      H      -1.3347458293     5.1859294871     1.2899552700
   14      C      -1.4239295558     3.6555077542    -0.3243150241
   15      H      -1.0548075294     4.3170369247    -1.1169265849
   16      H      -0.9939429052     2.6870307591    -0.6088897774
   17      C      -2.9388338204     3.5553222936    -0.4962392596
   18      C      -3.6317059251     4.8539295589    -0.7681186757
   19      C      -3.9267380856     5.7927724685     0.2656917592
   20      H      -3.7072245745     5.6280333297     1.3158550011
   21      C      -4.6241427845     6.9653843071    -0.1220738427
   22      H      -4.8741736765     7.7717529956     0.5607644187
   23      C      -4.8888893664     7.3389792385    -1.4833772896
   24      H      -5.3717176497     8.2753453721    -1.7507895419
   25      C      -4.4800832297     6.4650508364    -2.4887168793
   26      H      -4.6210927075     6.6968130720    -3.5406182973
   27      C      -3.9042834857     5.2450372983    -2.1276966285
   28      H      -3.5610164536     4.5472351153    -2.8853970034
   29      C      -7.8245439829     1.8376320087     1.2729281416
   30      C      -8.0142334527     1.8612557704    -1.0830187641
   31      C      -8.1085614334    -2.6307645863    -1.5917371019
   32      C      -3.8276180838    -0.8457945824     2.6187316515
   33      C      -4.7322890526    -2.8817845590    -2.5945909218
   34      C      -7.5361598975     2.4792291452     0.0096159341
   35      C      -3.4901633926    -2.9854896288     0.7970325985
   36      C      -9.1476957150    -1.3200780794     0.0859043454
   37      C      -4.4555887723     1.1427200818    -2.9577002045
   38      C      -2.9166319616    -0.7682332147     1.5851700813
   39      C      -3.5156358879     2.3103194167    -1.1119633955
   40      C      -3.3338756528     0.4255136665    -2.5477250403
   41      C      -2.4623872710    -1.2448197646    -0.5292681471
   42      C      -4.0031390090    -3.5692121272    -0.3907321349
   43      C      -5.8844969603     2.6223318774    -1.6160015332
   44      C      -6.3120791230    -3.9019359753    -1.0185708010
   45      C      -3.7566890640     2.6356640929     0.3343578717
   46      C      -3.3731514431     1.5791333064     1.3585837210
   47      C      -6.0350809609    -3.3044037624    -2.2618669333
   48      C      -6.9596255692    -2.2938187794     2.6525108767
   49      C      -7.7743317468    -3.2010146386     0.7287721945
   50      C      -8.4991507082    -2.0993661484     1.0979416371
   51      C      -9.1226317292     0.0905029854     0.2510977357
   52      C      -4.3548287318     1.4388800788     2.3390181824
   53      C      -4.6231954054     2.2254837001    -2.0801285759
   54      C      -8.8124643128     0.6949450934    -0.9680105088
   55      C      -2.7101535043    -1.8263958466     0.6963391124
   56      C      -7.0089626007     1.9915507172    -2.0952364981
   57      C      -3.4456123617    -0.9609750181    -2.6935949664
   58      C      -5.8385824118    -0.1549089645     3.3795769278
   59      C      -8.9283575884    -1.5486970684    -1.2717399910
   60      C      -2.8028825826     1.0004677283    -1.4308650732
   61      C      -8.1064622323    -0.1038403533     2.4441502249
   62      C      -2.9053930398    -1.8374036683    -1.7268153094
   63      C      -5.6189188801     0.4455577466    -3.4576979432
   64      C      -5.5220938986    -3.7027048791     1.2562914619
   65      C      -4.4186868447    -3.0833985421     1.8688488344
   66      C      -5.6888449970    -0.9154614790    -3.6062476176
   67      C      -4.5438852614     0.2492501908     2.9981117707
   68      C      -2.6741744932     0.4255861382     0.9392972388
   69      C      -5.8385429728    -1.6117894521     3.2279548867
   70      C      -5.1782695297     2.8773397650     0.7158219579
   71      C      -7.7369320838    -0.1606373757    -2.8833334746
   72      C      -2.3924957476     0.1270792561    -0.4368222057
   73      C      -4.5609012655    -1.6001168995    -3.1912116027
   74      C      -6.9751528407     0.5670816568     2.9243207330
   75      C      -7.1544298235    -2.5481207552    -2.6352302107
   76      C      -8.6311540774     0.6790986113     1.4094840732
   77      C      -7.6161954470    -3.5020677160    -0.5974295078
   78      C      -6.8804012924     0.9218984914    -2.9782444854
   79      C      -7.0057871720    -1.2777129500    -3.2578869145
   80      C      -6.1879205003     2.9189031479    -0.2714006122
   81      C      -5.4817875148     2.2103424722     1.9173053927
   82      C      -6.7797562439    -3.3096739115     1.6812115529
   83      C      -8.7306304899    -0.3024904919    -1.8884791279
   84      C      -3.7262450990    -2.9885684937    -1.6386935660
   85      C      -4.5895801247    -2.0266478384     2.7225557144
   86      C      -5.2639475495    -4.0525962046    -0.1148414721
   87      C      -6.7762938811     1.7198300979     2.1833145618
   88      C      -8.0271968505    -1.4696273486     2.1987080066
   89      O      11.4315959928     1.7803423627    -2.0230991846
   90      C      12.4235896335     2.2342809857    -3.0219196606
   91      H      12.9419795389     1.3763395675    -3.4678999615
   92      H      13.2096619019     2.8296251091    -2.5423075637
   93      H      11.9469922969     2.8570918232    -3.7877235778
   94      O      10.6360486864     3.9073750936    -1.5595970325
   95      C      10.5917065393     2.7149973570    -1.3644993459
   96      C       9.5936363293     2.0938703380    -0.4344401638
   97      H      10.0189336120     1.2527136729     0.1268535971
   98      H       8.8085487747     1.8106829544    -1.1470462523
   99      C       8.9871547283     3.0621933332     0.6027124983
  100      H       9.7777142138     3.1878471512     1.3528183694
  101      H       8.8641214038     4.0624268800     0.1695789703
  102      C       7.8682630344     2.5140472946     1.4294665716
  103      H       8.1414502953     1.5210942006     1.8071673440
  104      H       7.7268055744     3.2364212812     2.2422498210
  105      C       6.5383991104     2.3036925903     0.6353552179
  106      C       6.0959276449     3.6067455594    -0.0781221552
  107      C       5.1214839721     4.3967045536     0.5516987049
  108      H       4.5014005836     4.0112633152     1.3551199164
  109      C       4.7606150119     5.6255530678     0.0083499008
  110      H       3.9435311332     6.1619738064     0.4813739239
  111      C       5.4765006585     6.1210291446    -1.1473144961
  112      H       5.2366375727     7.0868239327    -1.5826340655
  113      C       6.5432254329     5.3969244545    -1.7108601050
  114      H       7.0450558068     5.8412005677    -2.5649338787
  115      C       6.6929873505     4.1240120285    -1.2118417449
  116      H       7.5225866394     3.5664419965    -1.6353776694
  117      C       1.4018474733     0.3027979141     0.8532973526
  118      C       1.9221206183     0.3891891774    -1.4762994804
  119      C       2.2574843836    -4.1686379760    -2.0172586141
  120      C       4.9367440423    -2.2725754022     3.4889006097
  121      C       5.7835546935    -4.1507034096    -1.7590735622
  122      C       2.0347016770     0.9858401827    -0.2241449040
  123      C       5.8866176604    -4.3038635047     1.8876193245
  124      C       0.7086372770    -2.7729567704    -0.7227225534
  125      C       5.8538392361    -0.1585935460    -2.0868965635
  126      C       6.1327980058    -2.0898961944     2.8375203649
  127      C       6.1603500134     0.9803266975     0.0189279359
  128      C       6.7724276568    -0.8482352240    -1.3010297368
  129      C       7.2774839300    -2.5110278757     0.9216687939
  130      C       5.7852007878    -4.8601938115     0.6002851769
  131      C       4.0850903779     1.1848197689    -1.3160878052
  132      C       3.8482667248    -5.2845579500    -0.8232384490
  133      C       5.4764877383     1.3367717343     1.2622445988
  134      C       5.5693731386     0.2367671937     2.3358801576
  135      C       4.5398017177    -4.7135032252    -1.9651582600
  136      C       1.9749249577    -3.8122253609     2.4240763450
  137      C       1.8385518275    -4.6780424030     0.2530765248
  138      C       0.8838922518    -3.6462449480     0.3495187687
  139      C       0.5759758967    -1.4360117193    -0.5433712543
  140      C       4.2726867123     0.0218727923     2.8812779097
  141      C       5.4840340335     0.9852387031    -1.3274916004
  142      C       1.2657255388    -0.8769670081    -1.6422031076
  143      C       6.6373460980    -3.0854915590     2.0016877904
  144      C       3.1764393902     0.5136148718    -2.1088717409
  145      C       6.9491929889    -2.2575687271    -1.5168331064
  146      C       2.7164883507    -1.6929247165     3.4923279597
  147      C       1.3720068535    -3.0645712406    -1.9479824465
  148      C       6.9840946371    -0.2641534336    -0.0366688107
  149      C       0.8691689760    -1.7043885830     1.8513173846
  150      C       7.1799206014    -3.0680952859    -0.3632974692
  151      C       5.0247832016    -0.9066289060    -2.9359985550
  152      C       3.7847222856    -5.1247849846     1.6741977772
  153      C       4.6739154176    -4.4751936876     2.5244381673
  154      C       5.1275111104    -2.2366776124    -3.1548647590
  155      C       4.0277764760    -1.1901837606     3.5237760722
  156      C       6.4760588101    -0.8723240976     2.2736017453
  157      C       2.7940720587    -3.0816359517     3.3438426968
  158      C       3.9506145773     1.4844194246     1.1371755939
  159      C       2.8983402716    -1.6829735362    -3.1893490642
  160      C       7.2025140437    -1.0960782998     1.0550637481
  161      C       6.0751757684    -2.9672612197    -2.3813401707
  162      C       1.7516301034    -0.9924968232     2.6900977379
  163      C       3.5473439504    -3.9005508414    -2.6240968019
  164      C       0.6446527591    -0.8526282888     0.7537209790
  165      C       2.4927404673    -4.9634073942    -0.9358700868
  166      C       3.6829258632    -0.5328805703    -2.9362529967
  167      C       3.8222292480    -2.7566475449    -3.3429273253
  168      C       3.3547649535     1.4529133518    -0.1171467702
  169      C       3.3246652917     0.7801752818     2.1887566318
  170      C       2.4740929519    -4.7695845098     1.5176814125
  171      C       1.6711981039    -1.8486539425    -2.5450090118
  172      C       6.4562846105    -4.2527240634    -0.5392480644
  173      C       4.1494740191    -3.4377891416     3.3173959390
  174      C       4.5070966187    -5.3329714759     0.4257600704
  175      C       2.0340973746     0.2498203980     2.0778280566
  176      C       1.0112113054    -3.1029170528     1.6696250738
 ----------------------------------------------------------------
 Molecular Point Group                 C1    NOp =  1
 Largest Abelian Subgroup              C1    NOp =  1
 Nuclear Repulsion Energy = 34877.6916210158 hartrees
 There are      462 alpha and      462 beta electrons
 Requested basis set is 6-31G(d,p)
 There are 676 shells and 2360 basis functions

 Total QAlloc Memory Limit  20000 MB
 Mega-Array Size      4888 MB
 MEM_STATIC part      5000 MB
 A cutoff of  1.0D-08 yielded  38000 shell pairs
 There are    532140 function pairs
 
 -------------------------------------------------------
 OpenMP Integral Computing Module                       
 Release: version 1.0, May 2013, Q-Chem Inc. Pittsburgh 
 -------------------------------------------------------
 Integral Job Info:
 Integral job number is                      11
 Integral operator is                         1
 short-range coefficients                     0
 long-range coefficients              100000000
 Omega coefficients                           0
 if combine SR and LR in K                    0
 Integral screening is                        0
 Integral computing path is                   2
 max size of driver memory is            800000
 size of driver memory is                593474
 size of scratch memory is              2260544
 max col of scratch BK array               1296
 max len of scratch array in speh3          155
 max len of scratch index in speh4           18
 max int batch size is                      520
 min int batch size is                       52
 fixed nKL is                                52
 max L of basis functions is                  2
 order of int derivative is                   0
 number of shells is                        676
 number of basis is                        2360
 number of cartesian basis is              2360
 number of contracted shell pairs         38000
 number of primitive shell pairs         114646
 maxK2 (contraction) of shell pair           36
 max number of K2 of shell pair               1
 max number of CS2 of shell pair           7223
 max number of PS2 of shell pair          34722
 mem total for path MDJ                 1508616
 -------------------------------------------------------
 Smallest overlap matrix eigenvalue = 2.48E-04

 Scale SEOQF with 1.000000e-02/1.000000e-02/1.000000e-02

 Standard Electronic Orientation quadrupole field applied
 Nucleus-field energy     =     0.0000001269 hartrees
 Guess from superposition of atomic densities
 Warning:  Energy on first SCF cycle will be non-variational
 A restricted hybrid HF-DFT SCF calculation will be
 performed using Pulay DIIS extrapolation
 Exchange:     0.2000 Hartree-Fock + 0.0800 Slater + 0.7200 B88
 Correlation:  0.1900 VWN1RPA + 0.8100 LYP
 Using SG-1 standard quadrature grid
 SCF converges when DIIS error is below 1.0E-05
 using 16 threads for integral computing 
 -------------------------------------------------------
 OpenMP BLAS3 based DFT computing Module                
 Release: version 1.0, May 2013, Q-Chem Inc. Pittsburgh 
 -------------------------------------------------------
 ---------------------------------------
  Cycle       Energy         DIIS Error
 ---------------------------------------
    1   -5858.7834721591      1.84E-02
    2   -5803.1186707252      1.29E-03
    3   -5802.4628279687      1.73E-03
    4   -5803.9801919110      6.25E-04
    5   -5804.1841796028      3.13E-04
    6   -5804.2514212350      1.23E-04
    7   -5804.2610682671      4.73E-05
    8   -5804.2621446068      2.92E-05
    9   -5804.2628116572      8.11E-06 Convergence criterion met
 ---------------------------------------
 SCF time:  CPU 8345.82 s  wall 855.45 s
 SCF   energy in the final basis set = -5804.2628116572
 Total energy in the final basis set = -5804.2628116572
 
 --------------------------------------------------------------
 
                    Orbital Energies (a.u.)
 --------------------------------------------------------------
 
 Alpha MOs
 -- Occupied --
-19.190 -19.185 -19.142 -19.135 -10.321 -10.313 -10.251 -10.247
-10.244 -10.242 -10.237 -10.236 -10.236 -10.236 -10.234 -10.229
-10.227 -10.226 -10.225 -10.225 -10.224 -10.224 -10.223 -10.222
-10.222 -10.221 -10.221 -10.221 -10.221 -10.221 -10.220 -10.220
-10.220 -10.220 -10.220 -10.220 -10.220 -10.220 -10.219 -10.219
-10.219 -10.219 -10.219 -10.219 -10.218 -10.218 -10.218 -10.218
-10.218 -10.218 -10.218 -10.217 -10.217 -10.217 -10.217 -10.217
-10.217 -10.217 -10.217 -10.216 -10.216 -10.216 -10.216 -10.216
-10.215 -10.215 -10.215 -10.215 -10.215 -10.215 -10.215 -10.214
-10.214 -10.214 -10.214 -10.214 -10.214 -10.214 -10.214 -10.214
-10.214 -10.213 -10.213 -10.213 -10.213 -10.213 -10.213 -10.213
-10.213 -10.212 -10.212 -10.212 -10.212 -10.212 -10.212 -10.212
-10.212 -10.211 -10.211 -10.211 -10.211 -10.211 -10.211 -10.210
-10.210 -10.210 -10.210 -10.210 -10.210 -10.209 -10.209 -10.209
-10.208 -10.208 -10.208 -10.208 -10.208 -10.208 -10.208 -10.208
-10.207 -10.207 -10.207 -10.206 -10.206 -10.206 -10.206 -10.206
-10.206 -10.205 -10.205 -10.205 -10.204 -10.204 -10.204 -10.203
-10.202 -10.202 -10.200 -10.199 -10.198 -10.198 -10.196 -10.193
-10.192 -10.191 -10.189 -10.189  -1.113  -1.077  -1.026  -1.005
 -0.984  -0.984  -0.968  -0.965  -0.964  -0.963  -0.962  -0.962
 -0.938  -0.934  -0.929  -0.926  -0.926  -0.926  -0.926  -0.923
 -0.921  -0.918  -0.899  -0.899  -0.893  -0.889  -0.888  -0.883
 -0.875  -0.873  -0.852  -0.848  -0.844  -0.842  -0.839  -0.839
 -0.839  -0.837  -0.823  -0.823  -0.810  -0.805  -0.803  -0.798
 -0.798  -0.796  -0.795  -0.793  -0.791  -0.790  -0.783  -0.783
 -0.774  -0.772  -0.771  -0.769  -0.767  -0.767  -0.763  -0.759
 -0.748  -0.748  -0.741  -0.738  -0.734  -0.733  -0.717  -0.716
 -0.716  -0.715  -0.715  -0.712  -0.712  -0.710  -0.710  -0.708
 -0.707  -0.707  -0.706  -0.706  -0.704  -0.702  -0.674  -0.672
 -0.661  -0.660  -0.658  -0.658  -0.650  -0.649  -0.633  -0.632
 -0.628  -0.626  -0.624  -0.623  -0.622  -0.620  -0.619  -0.617
 -0.615  -0.614  -0.613  -0.611  -0.611  -0.609  -0.608  -0.606
 -0.605  -0.604  -0.604  -0.602  -0.570  -0.566  -0.564  -0.562
 -0.561  -0.560  -0.559  -0.557  -0.557  -0.556  -0.554  -0.549
 -0.537  -0.535  -0.534  -0.534  -0.528  -0.528  -0.526  -0.524
 -0.523  -0.521  -0.521  -0.517  -0.517  -0.516  -0.515  -0.512
 -0.508  -0.504  -0.503  -0.502  -0.496  -0.491  -0.489  -0.488
 -0.485  -0.484  -0.482  -0.482  -0.481  -0.481  -0.475  -0.474
 -0.472  -0.472  -0.470  -0.470  -0.468  -0.467  -0.466  -0.465
 -0.465  -0.464  -0.464  -0.463  -0.463  -0.460  -0.459  -0.457
 -0.456  -0.456  -0.454  -0.453  -0.453  -0.446  -0.444  -0.444
 -0.443  -0.443  -0.441  -0.440  -0.440  -0.437  -0.436  -0.433
 -0.432  -0.429  -0.429  -0.428  -0.428  -0.426  -0.424  -0.424
 -0.424  -0.423  -0.422  -0.422  -0.420  -0.419  -0.419  -0.418
 -0.417  -0.417  -0.416  -0.416  -0.415  -0.414  -0.413  -0.413
 -0.412  -0.410  -0.410  -0.408  -0.404  -0.402  -0.400  -0.398
 -0.395  -0.395  -0.392  -0.389  -0.388  -0.387  -0.386  -0.384
 -0.381  -0.378  -0.374  -0.374  -0.369  -0.367  -0.366  -0.366
 -0.364  -0.363  -0.362  -0.362  -0.361  -0.359  -0.359  -0.358
 -0.356  -0.356  -0.354  -0.354  -0.353  -0.352  -0.352  -0.350
 -0.349  -0.348  -0.348  -0.347  -0.345  -0.344  -0.344  -0.343
 -0.343  -0.341  -0.340  -0.339  -0.338  -0.337  -0.335  -0.333
 -0.332  -0.331  -0.331  -0.330  -0.329  -0.327  -0.326  -0.322
 -0.312  -0.304  -0.303  -0.297  -0.290  -0.287  -0.277  -0.273
 -0.271  -0.270  -0.270  -0.268  -0.266  -0.266  -0.263  -0.263
 -0.262  -0.261  -0.260  -0.259  -0.258  -0.257  -0.254  -0.254
 -0.248  -0.248  -0.243  -0.242  -0.223  -0.221  -0.216  -0.211
 -0.210  -0.209  -0.207  -0.203  -0.202  -0.199
 -- Virtual --
 -0.123  -0.122  -0.119  -0.116  -0.114  -0.106  -0.081  -0.074
 -0.073  -0.069  -0.061  -0.057  -0.055  -0.049  -0.028  -0.025
 -0.022  -0.019  -0.018  -0.017  -0.016  -0.015  -0.014  -0.013
 -0.010  -0.008  -0.007  -0.006  -0.004  -0.001   0.002   0.008
  0.009   0.021   0.036   0.039   0.041   0.043   0.045   0.047
  0.048   0.050   0.052   0.057   0.061   0.063   0.066   0.069
  0.069   0.072   0.074   0.079   0.081   0.086   0.088   0.091
  0.091   0.095   0.096   0.097   0.098   0.101   0.105   0.108
  0.108   0.110   0.112   0.112   0.113   0.116   0.117   0.119
  0.121   0.121   0.122   0.126   0.128   0.131   0.133   0.138
  0.140   0.142   0.145   0.147   0.147   0.153   0.155   0.156
  0.157   0.159   0.163   0.165   0.166   0.167   0.169   0.170
  0.172   0.173   0.176   0.178   0.178   0.179   0.180   0.182
  0.182   0.183   0.185   0.189   0.190   0.191   0.192   0.193
  0.195   0.196   0.201   0.202   0.203   0.206   0.206   0.208
  0.209   0.210   0.214   0.216   0.216   0.219   0.219   0.220
  0.222   0.223   0.223   0.225   0.227   0.228   0.229   0.229
  0.231   0.232   0.235   0.236   0.237   0.239   0.240   0.241
  0.242   0.244   0.247   0.248   0.249   0.250   0.251   0.257
  0.257   0.268   0.272   0.274   0.275   0.277   0.280   0.281
  0.284   0.287   0.290   0.291   0.296   0.297   0.300   0.306
  0.308   0.310   0.312   0.313   0.315   0.317   0.318   0.319
  0.323   0.324   0.326   0.327   0.329   0.330   0.333   0.334
  0.336   0.341   0.341   0.342   0.345   0.347   0.347   0.350
  0.353   0.355   0.358   0.361   0.370   0.380   0.389   0.391
  0.391   0.396   0.398   0.399   0.403   0.403   0.404   0.405
  0.406   0.413   0.414   0.416   0.418   0.424   0.425   0.426
  0.431   0.431   0.436   0.436   0.441   0.442   0.444   0.446
  0.448   0.452   0.454   0.455   0.457   0.461   0.462   0.464
  0.464   0.465   0.466   0.470   0.471   0.472   0.474   0.474
  0.476   0.477   0.479   0.482   0.483   0.483   0.484   0.487
  0.488   0.488   0.490   0.491   0.493   0.493   0.494   0.495
  0.496   0.498   0.499   0.501   0.502   0.503   0.503   0.504
  0.505   0.506   0.508   0.509   0.509   0.510   0.511   0.512
  0.513   0.515   0.515   0.516   0.517   0.517   0.518   0.519
  0.521   0.521   0.522   0.523   0.524   0.525   0.525   0.526
  0.526   0.528   0.528   0.530   0.530   0.531   0.532   0.533
  0.534   0.534   0.536   0.536   0.537   0.538   0.539   0.539
  0.540   0.541   0.542   0.542   0.544   0.544   0.544   0.545
  0.546   0.547   0.547   0.548   0.549   0.550   0.551   0.552
  0.552   0.553   0.554   0.556   0.557   0.557   0.558   0.558
  0.559   0.560   0.561   0.561   0.562   0.564   0.564   0.565
  0.566   0.566   0.567   0.568   0.569   0.569   0.570   0.571
  0.572   0.573   0.574   0.574   0.575   0.576   0.577   0.578
  0.579   0.581   0.581   0.582   0.583   0.584   0.585   0.585
  0.586   0.587   0.587   0.588   0.589   0.590   0.591   0.592
  0.593   0.593   0.595   0.595   0.596   0.597   0.598   0.599
  0.601   0.602   0.602   0.603   0.604   0.605   0.606   0.607
  0.610   0.611   0.612   0.613   0.615   0.616   0.617   0.617
  0.619   0.619   0.620   0.621   0.621   0.624   0.626   0.627
  0.628   0.629   0.629   0.630   0.630   0.632   0.633   0.634
  0.635   0.636   0.636   0.639   0.639   0.640   0.642   0.642
  0.644   0.644   0.646   0.647   0.647   0.648   0.649   0.650
  0.651   0.652   0.652   0.653   0.654   0.657   0.657   0.658
  0.659   0.660   0.660   0.661   0.661   0.661   0.663   0.664
  0.665   0.665   0.666   0.667   0.669   0.670   0.670   0.672
  0.672   0.673   0.673   0.675   0.675   0.677   0.677   0.678
  0.680   0.681   0.683   0.684   0.685   0.686   0.688   0.688
  0.689   0.691   0.692   0.693   0.693   0.694   0.696   0.697
  0.698   0.699   0.700   0.702   0.702   0.705   0.706   0.707
  0.708   0.708   0.711   0.713   0.714   0.714   0.716   0.717
  0.718   0.719   0.721   0.722   0.722   0.724   0.725   0.726
  0.727   0.728   0.729   0.731   0.731   0.734   0.735   0.735
  0.737   0.738   0.740   0.741   0.742   0.745   0.746   0.747
  0.748   0.748   0.751   0.753   0.754   0.755   0.755   0.756
  0.757   0.759   0.762   0.762   0.764   0.765   0.766   0.767
  0.768   0.769   0.770   0.774   0.775   0.775   0.776   0.778
  0.779   0.780   0.780   0.781   0.783   0.785   0.786   0.787
  0.788   0.789   0.791   0.791   0.792   0.794   0.795   0.796
  0.797   0.798   0.798   0.800   0.801   0.802   0.803   0.805
  0.806   0.807   0.807   0.808   0.808   0.809   0.811   0.811
  0.812   0.812   0.813   0.814   0.815   0.815   0.816   0.818
  0.819   0.819   0.820   0.822   0.823   0.823   0.824   0.826
  0.828   0.829   0.830   0.831   0.831   0.832   0.834   0.835
  0.837   0.838   0.838   0.841   0.844   0.847   0.849   0.850
  0.851   0.854   0.854   0.856   0.859   0.861   0.863   0.868
  0.870   0.877   0.880   0.881   0.884   0.887   0.889   0.895
  0.897   0.898   0.901   0.903   0.904   0.905   0.910   0.912
  0.914   0.917   0.919   0.921   0.921   0.925   0.926   0.928
  0.929   0.930   0.932   0.933   0.936   0.937   0.938   0.939
  0.941   0.942   0.944   0.946   0.949   0.949   0.952   0.954
  0.955   0.957   0.959   0.962   0.963   0.965   0.969   0.970
  0.974   0.978   0.980   0.984   0.985   0.987   0.991   0.993
  0.996   0.998   0.999   1.002   1.003   1.004   1.006   1.009
  1.009   1.011   1.013   1.015   1.016   1.018   1.021   1.022
  1.023   1.025   1.026   1.028   1.029   1.031   1.032   1.032
  1.033   1.036   1.038   1.041   1.041   1.043   1.045   1.047
  1.048   1.051   1.052   1.053   1.055   1.056   1.058   1.059
  1.060   1.061   1.063   1.065   1.066   1.068   1.069   1.071
  1.074   1.076   1.078   1.078   1.081   1.082   1.083   1.084
  1.086   1.087   1.089   1.091   1.092   1.094   1.096   1.099
  1.102   1.103   1.105   1.108   1.110   1.112   1.114   1.114
  1.115   1.117   1.118   1.121   1.123   1.127   1.130   1.131
  1.134   1.135   1.137   1.140   1.141   1.143   1.147   1.147
  1.150   1.152   1.154   1.155   1.156   1.158   1.159   1.161
  1.162   1.164   1.166   1.167   1.168   1.170   1.172   1.174
  1.175   1.176   1.177   1.180   1.183   1.184   1.185   1.189
  1.190   1.192   1.192   1.197   1.198   1.200   1.201   1.202
  1.203   1.207   1.208   1.213   1.215   1.216   1.218   1.219
  1.220   1.225   1.228   1.232   1.234   1.237   1.239   1.241
  1.243   1.249   1.251   1.255   1.258   1.260   1.262   1.263
  1.264   1.265   1.268   1.269   1.271   1.275   1.276   1.276
  1.279   1.279   1.280   1.284   1.286   1.289   1.290   1.290
  1.292   1.295   1.302   1.303   1.305   1.308   1.310   1.315
  1.318   1.320   1.322   1.323   1.325   1.327   1.328   1.330
  1.332   1.336   1.339   1.340   1.344   1.345   1.346   1.351
  1.352   1.355   1.358   1.360   1.362   1.362   1.367   1.368
  1.369   1.369   1.371   1.377   1.379   1.380   1.383   1.386
  1.389   1.394   1.394   1.397   1.400   1.404   1.405   1.407
  1.408   1.412   1.413   1.414   1.419   1.422   1.425   1.428
  1.432   1.434   1.437   1.440   1.441   1.444   1.447   1.450
  1.453   1.456   1.459   1.460   1.461   1.463   1.465   1.467
  1.467   1.470   1.471   1.473   1.476   1.478   1.480   1.483
  1.483   1.484   1.489   1.491   1.491   1.496   1.499   1.499
  1.500   1.501   1.503   1.508   1.510   1.513   1.515   1.516
  1.521   1.524   1.525   1.526   1.528   1.534   1.540   1.542
  1.543   1.545   1.546   1.551   1.553   1.553   1.555   1.556
  1.562   1.565   1.566   1.568   1.570   1.572   1.576   1.578
  1.579   1.580   1.582   1.583   1.589   1.590   1.590   1.597
  1.598   1.602   1.605   1.608   1.612   1.615   1.621   1.623
  1.625   1.628   1.631   1.636   1.637   1.639   1.647   1.648
  1.650   1.654   1.656   1.661   1.662   1.669   1.672   1.676
  1.678   1.681   1.683   1.685   1.686   1.688   1.695   1.701
  1.702   1.702   1.706   1.709   1.711   1.713   1.715   1.717
  1.719   1.721   1.724   1.727   1.728   1.728   1.731   1.733
  1.735   1.736   1.738   1.739   1.741   1.742   1.744   1.746
  1.750   1.752   1.753   1.755   1.755   1.757   1.759   1.762
  1.763   1.764   1.765   1.765   1.766   1.767   1.768   1.770
  1.771   1.774   1.775   1.777   1.777   1.779   1.781   1.781
  1.783   1.784   1.785   1.786   1.786   1.788   1.789   1.791
  1.793   1.793   1.793   1.795   1.796   1.797   1.799   1.800
  1.801   1.803   1.803   1.806   1.807   1.809   1.811   1.811
  1.814   1.815   1.817   1.821   1.823   1.825   1.825   1.828
  1.829   1.830   1.836   1.837   1.838   1.839   1.841   1.844
  1.845   1.846   1.848   1.854   1.855   1.856   1.858   1.859
  1.860   1.862   1.865   1.867   1.868   1.870   1.871   1.872
  1.872   1.873   1.875   1.876   1.878   1.879   1.882   1.884
  1.887   1.889   1.891   1.893   1.894   1.899   1.902   1.903
  1.906   1.909   1.911   1.915   1.916   1.917   1.918   1.920
  1.923   1.925   1.927   1.930   1.931   1.933   1.936   1.937
  1.938   1.939   1.942   1.944   1.945   1.949   1.950   1.952
  1.954   1.955   1.958   1.962   1.964   1.965   1.966   1.970
  1.971   1.973   1.974   1.980   1.981   1.982   1.983   1.983
  1.987   1.987   1.988   1.991   1.993   1.995   1.996   1.998
  1.999   2.001   2.002   2.005   2.005   2.006   2.007   2.009
  2.010   2.011   2.012   2.013   2.015   2.016   2.017   2.018
  2.018   2.020   2.020   2.022   2.023   2.024   2.026   2.027
  2.028   2.030   2.030   2.032   2.033   2.035   2.036   2.036
  2.038   2.039   2.040   2.041   2.042   2.043   2.044   2.045
  2.047   2.049   2.050   2.051   2.053   2.054   2.055   2.058
  2.058   2.059   2.060   2.061   2.061   2.064   2.064   2.065
  2.068   2.068   2.068   2.070   2.073   2.074   2.074   2.077
  2.079   2.082   2.083   2.084   2.086   2.089   2.090   2.091
  2.092   2.094   2.096   2.097   2.099   2.100   2.102   2.107
  2.108   2.111   2.112   2.114   2.116   2.117   2.119   2.125
  2.127   2.128   2.130   2.133   2.135   2.138   2.143   2.145
  2.147   2.152   2.154   2.156   2.165   2.168   2.171   2.173
  2.174   2.182   2.186   2.186   2.191   2.197   2.197   2.207
  2.213   2.214   2.215   2.216   2.217   2.219   2.222   2.225
  2.227   2.230   2.234   2.235   2.237   2.240   2.243   2.247
  2.250   2.251   2.254   2.254   2.258   2.262   2.263   2.266
  2.268   2.271   2.273   2.275   2.277   2.278   2.279   2.281
  2.283   2.283   2.287   2.289   2.290   2.293   2.293   2.297
  2.298   2.300   2.305   2.307   2.311   2.312   2.315   2.316
  2.319   2.323   2.325   2.327   2.328   2.331   2.333   2.333
  2.340   2.341   2.342   2.349   2.351   2.352   2.353   2.355
  2.359   2.361   2.363   2.367   2.368   2.369   2.371   2.372
  2.375   2.376   2.379   2.382   2.383   2.384   2.386   2.387
  2.387   2.391   2.392   2.392   2.394   2.397   2.397   2.399
  2.399   2.400   2.403   2.404   2.406   2.407   2.409   2.411
  2.412   2.415   2.417   2.419   2.424   2.425   2.427   2.428
  2.431   2.433   2.433   2.438   2.441   2.442   2.444   2.447
  2.448   2.450   2.451   2.455   2.457   2.460   2.462   2.463
  2.464   2.465   2.467   2.470   2.472   2.473   2.476   2.481
  2.483   2.483   2.485   2.485   2.490   2.493   2.494   2.495
  2.498   2.498   2.501   2.503   2.504   2.506   2.508   2.508
  2.512   2.513   2.513   2.515   2.518   2.522   2.523   2.524
  2.527   2.531   2.532   2.534   2.537   2.540   2.541   2.542
  2.546   2.547   2.549   2.551   2.554   2.556   2.558   2.565
  2.568   2.569   2.575   2.578   2.580   2.581   2.586   2.587
  2.590   2.590   2.594   2.596   2.598   2.599   2.602   2.606
  2.608   2.608   2.610   2.612   2.615   2.616   2.618   2.622
  2.624   2.627   2.628   2.628   2.630   2.631   2.632   2.636
  2.638   2.639   2.641   2.642   2.642   2.644   2.645   2.648
  2.651   2.652   2.653   2.655   2.658   2.660   2.661   2.662
  2.663   2.665   2.668   2.669   2.672   2.673   2.674   2.675
  2.677   2.679   2.680   2.682   2.684   2.686   2.688   2.689
  2.691   2.693   2.694   2.696   2.700   2.701   2.703   2.707
  2.709   2.712   2.715   2.716   2.718   2.721   2.723   2.724
  2.728   2.731   2.733   2.737   2.738   2.739   2.741   2.743
  2.745   2.749   2.751   2.755   2.757   2.758   2.760   2.763
  2.765   2.767   2.768   2.769   2.770   2.772   2.776   2.776
  2.779   2.780   2.782   2.784   2.788   2.790   2.791   2.793
  2.797   2.797   2.805   2.807   2.810   2.816   2.818   2.819
  2.821   2.823   2.825   2.827   2.834   2.836   2.840   2.844
  2.845   2.847   2.852   2.854   2.855   2.858   2.860   2.863
  2.864   2.865   2.871   2.873   2.874   2.878   2.879   2.880
  2.882   2.885   2.886   2.888   2.889   2.890   2.891   2.895
  2.896   2.897   2.901   2.901   2.903   2.904   2.906   2.908
  2.909   2.910   2.912   2.917   2.917   2.920   2.921   2.921
  2.923   2.924   2.925   2.927   2.929   2.930   2.933   2.935
  2.936   2.943   2.945   2.946   2.947   2.950   2.956   2.957
  2.962   2.967   2.970   2.972   2.976   2.976   2.978   2.981
  2.984   2.986   2.992   2.993   2.996   2.999   3.004   3.007
  3.007   3.009   3.010   3.015   3.016   3.020   3.024   3.025
  3.028   3.029   3.033   3.035   3.040   3.041   3.044   3.048
  3.049   3.052   3.054   3.055   3.058   3.063   3.064   3.068
  3.072   3.073   3.075   3.076   3.080   3.084   3.092   3.109
  3.111   3.113   3.115   3.130   3.138   3.139   3.150   3.156
  3.159   3.162   3.164   3.167   3.171   3.172   3.184   3.191
  3.198   3.204   3.209   3.216   3.227   3.228   3.238   3.243
  3.244   3.246   3.247   3.258   3.262   3.283   3.286   3.289
  3.291   3.297   3.309   3.312   3.321   3.324   3.332   3.335
  3.337   3.338   3.344   3.346   3.353   3.369   3.390   3.393
  3.394   3.397   3.399   3.410   3.412   3.413   3.430   3.431
  3.444   3.462   3.463   3.469   3.480   3.484   3.486   3.493
  3.506   3.513   3.515   3.520   3.527   3.529   3.533   3.538
  3.548   3.556   3.564   3.567   3.571   3.577   3.589   3.602
  3.605   3.624   3.671   3.704   3.831   3.846   3.979   4.038
  4.078   4.081   4.084   4.092   4.094   4.095   4.098   4.100
  4.102   4.106   4.107   4.113   4.113   4.117   4.119   4.124
  4.130   4.133   4.137   4.139   4.143   4.144   4.147   4.149
  4.155   4.162   4.165   4.171   4.173   4.178   4.180   4.188
  4.195   4.197   4.202   4.206   4.210   4.230   4.235   4.240
  4.244   4.246   4.247   4.250   4.253   4.258   4.261   4.267
  4.273   4.276   4.278   4.288   4.293   4.294   4.302   4.303
  4.310   4.311   4.313   4.338   4.379   4.384   4.389   4.390
  4.393   4.397   4.399   4.403   4.408   4.410   4.415   4.417
  4.422   4.424   4.425   4.431   4.437   4.449   4.452   4.461
  4.480   4.485   4.501   4.524   4.536   4.541   4.551   4.560
  4.561   4.564   4.609   4.613   4.619   4.627   4.631   4.636
  4.640   4.651   4.691   4.692   4.694   4.696   4.702   4.704
  4.704   4.707   4.713   4.719   4.760   4.776   4.810   4.829
  4.839   4.844   4.851   4.864   4.866   4.881   4.885   4.895
  4.903   4.920   4.952   4.957   4.968   4.973   4.976   4.988
  4.992   4.994   5.005   5.012   5.137   5.174   5.180   5.186
  5.196   5.199   5.206   5.221   5.290   5.321   5.336   5.341
  5.346   5.359
 --------------------------------------------------------------
 
          Ground-State Mulliken Net Atomic Charges

     Atom                 Charge (a.u.)
  ----------------------------------------
      1 O                    -0.464782
      2 C                    -0.086242
      3 H                     0.127529
      4 H                     0.132849
      5 H                     0.127992
      6 O                    -0.447454
      7 C                     0.580143
      8 C                    -0.271601
      9 H                     0.139482
     10 H                     0.135472
     11 C                    -0.179449
     12 H                     0.123318
     13 H                     0.111487
     14 C                    -0.191376
     15 H                     0.108698
     16 H                     0.109165
     17 C                     0.019746
     18 C                     0.068199
     19 C                    -0.103503
     20 H                     0.099707
     21 C                    -0.101314
     22 H                     0.086102
     23 C                    -0.085657
     24 H                     0.094183
     25 C                    -0.082144
     26 H                     0.092502
     27 C                    -0.098073
     28 H                     0.087043
     29 C                    -0.013042
     30 C                     0.027004
     31 C                     0.005234
     32 C                     0.018611
     33 C                    -0.018551
     34 C                    -0.033073
     35 C                    -0.031801
     36 C                    -0.032724
     37 C                    -0.016070
     38 C                    -0.003336
     39 C                    -0.095229
     40 C                    -0.005979
     41 C                     0.005390
     42 C                     0.031097
     43 C                     0.033184
     44 C                    -0.007269
     45 C                    -0.066405
     46 C                     0.015225
     47 C                     0.018700
     48 C                    -0.038048
     49 C                     0.014559
     50 C                     0.011513
     51 C                    -0.008248
     52 C                     0.008529
     53 C                     0.030156
     54 C                     0.040483
     55 C                     0.009283
     56 C                    -0.036862
     57 C                     0.028079
     58 C                    -0.027096
     59 C                     0.001361
     60 C                     0.029450
     61 C                    -0.011598
     62 C                    -0.049325
     63 C                    -0.010843
     64 C                    -0.019575
     65 C                     0.005617
     66 C                    -0.014132
     67 C                     0.006748
     68 C                    -0.017697
     69 C                    -0.041018
     70 C                     0.031185
     71 C                     0.023880
     72 C                     0.015601
     73 C                     0.022528
     74 C                     0.001205
     75 C                    -0.016175
     76 C                    -0.015732
     77 C                    -0.002664
     78 C                    -0.004096
     79 C                    -0.014457
     80 C                     0.004003
     81 C                    -0.011597
     82 C                     0.008747
     83 C                    -0.022049
     84 C                    -0.005467
     85 C                     0.032620
     86 C                     0.001838
     87 C                     0.027245
     88 C                     0.048455
     89 O                    -0.506679
     90 C                    -0.081849
     91 H                     0.127913
     92 H                     0.126702
     93 H                     0.130792
     94 O                    -0.456376
     95 C                     0.602406
     96 C                    -0.255579
     97 H                     0.131033
     98 H                     0.139501
     99 C                    -0.195018
    100 H                     0.101405
    101 H                     0.144884
    102 C                    -0.172362
    103 H                     0.100151
    104 H                     0.119643
    105 C                     0.004219
    106 C                     0.100970
    107 C                    -0.115745
    108 H                     0.095973
    109 C                    -0.099598
    110 H                     0.114240
    111 C                    -0.101530
    112 H                     0.084616
    113 C                    -0.070102
    114 H                     0.103450
    115 C                    -0.121767
    116 H                     0.075892
    117 C                     0.023457
    118 C                    -0.030441
    119 C                     0.005445
    120 C                    -0.002697
    121 C                     0.032088
    122 C                    -0.010622
    123 C                    -0.001273
    124 C                     0.022177
    125 C                    -0.003452
    126 C                     0.008691
    127 C                    -0.068845
    128 C                     0.000867
    129 C                     0.010369
    130 C                    -0.006982
    131 C                     0.042841
    132 C                    -0.005584
    133 C                    -0.104113
    134 C                     0.017672
    135 C                    -0.037352
    136 C                    -0.004819
    137 C                     0.025835
    138 C                    -0.020425
    139 C                     0.000545
    140 C                     0.038317
    141 C                     0.004650
    142 C                     0.001055
    143 C                     0.004828
    144 C                    -0.010380
    145 C                    -0.028598
    146 C                    -0.020127
    147 C                    -0.007185
    148 C                     0.072636
    149 C                     0.012304
    150 C                    -0.014233
    151 C                     0.044491
    152 C                    -0.039764
    153 C                     0.017464
    154 C                    -0.013203
    155 C                    -0.012751
    156 C                    -0.017115
    157 C                     0.005860
    158 C                    -0.009082
    159 C                    -0.019787
    160 C                    -0.041644
    161 C                     0.005864
    162 C                    -0.004708
    163 C                     0.025831
    164 C                    -0.017022
    165 C                     0.009733
    166 C                    -0.001126
    167 C                    -0.038865
    168 C                     0.028644
    169 C                     0.006285
    170 C                     0.021101
    171 C                     0.008950
    172 C                    -0.001393
    173 C                     0.002583
    174 C                     0.006471
    175 C                    -0.026900
    176 C                    -0.013146
  ----------------------------------------
  Sum of atomic charges =     0.000000

 -----------------------------------------------------------------
                    Cartesian Multipole Moments
 -----------------------------------------------------------------
    Charge (ESU x 10^10)
                 0.0000
    Dipole Moment (Debye)
         X       1.5820      Y       2.4749      Z       0.1604
       Tot       2.9417
    Quadrupole Moments (Debye-Ang)
        XX    -802.5322     XY     -16.5627     YY    -799.7027
        XZ      -8.8632     YZ       1.7709     ZZ    -792.6262
    Octopole Moments (Debye-Ang^2)
       XXX     742.8588    XXY      47.2349    XYY    -149.1256
       YYY     333.2412    XXZ    -136.7401    XYZ     -27.6429
       YYZ       9.5078    XZZ     140.9220    YZZ     189.4390
       ZZZ      36.9260
    Hexadecapole Moments (Debye-Ang^3)
      XXXX -144339.6045   XXXY     436.7855   XXYY  -33374.1503
      XYYY    -884.0718   YYYY  -45203.3612   XXXZ   -2310.7133
      XXYZ    -320.6221   XYYZ    -176.4833   YYYZ      49.6332
      XXZZ  -27307.7618   XYZZ     243.3711   YYZZ  -10419.8266
      XZZZ    -584.0862   YZZZ     394.9432   ZZZZ  -19470.7351
 -----------------------------------------------------------------
Archival summary:
1\1\mn251\SP\ProcedureUnspecified\6-31G**\428\afmv_a\FriOct1208:16:202018FriOct1208:16:202018\0\\#,ProcedureUnspecified,6-31G**,\\0,1\C\C,1,1.38502\C,2,1.37914,1,106.405\C,3,1.3997,2,118.588,1,-145.087,0\C,4,1.39762,3,117.33,2,135.049,0\C,5,1.39351,4,125.532,3,3.09946,0\C,6,1.40471,5,117.712,4,0.823512,0\C,7,1.39878,6,107.814,5,-141.823,0\C,8,1.40166,7,107.933,6,-1.44732,0\C,9,1.40714,8,123.943,7,144.243,0\C,10,1.38041,9,119.728,8,-139.744,0\C,10,1.39124,9,116.77,8,-3.40843,0\C,12,1.3669,10,124.158,9,-3.64267,0\C,11,1.40606,10,108.053,9,139.422,0\C,14,1.37387,11,108.636,10,-1.92757,0\C,1,1.40735,2,111.199,3,4.99014,0\C,13,1.4097,12,116.255,10,9.42719,0\C,16,1.41035,1,104.961,2,-3.24858,0\C,4,1.41195,3,122.597,2,-6.51711,0\C,19,1.38901,4,118.104,3,11.0128,0\C,20,1.40434,19,118.658,4,-13.7757,0\C,21,1.3916,20,106.69,19,148.836,0\C,22,1.4103,21,107.086,20,0.354652,0\C,23,1.3801,22,111.767,21,0.84057,0\C,15,1.41294,14,122.295,11,-145.318,0\C,25,1.3976,15,122.097,14,140.124,0\C,26,1.3625,25,111.436,15,-140.435,0\C,26,1.38672,25,115.833,15,-0.811914,0\C,28,1.409,26,121.939,25,-140.502,0\C,29,1.39393,28,119.427,26,8.40647,0\C,30,1.35543,29,121.902,28,136.689,0\C,31,1.4127,30,103.864,29,-142.997,0\C,32,1.38695,31,111.827,30,-6.82878,0\C,33,1.38723,32,105.717,31,6.62999,0\C,33,1.39589,32,118.315,31,143.729,0\C,24,1.41315,23,125.342,22,-150.158,0\C,6,1.41386,5,122.786,4,-140.056,0\C,37,1.37412,6,118.002,5,-2.77093,0\C,38,1.38503,37,121.708,6,-2.57,0\C,38,1.39442,37,120.276,6,136.96,0\C,40,1.38066,38,109.851,37,-144.16,0\C,41,1.40392,40,121.242,38,141.65,0\C,42,1.39927,41,119.141,40,2.17393,0\C,43,1.39676,42,107.281,41,-142.22,0\C,44,1.3685,43,110.955,42,-1.53598,0\C,44,1.38063,43,122.308,42,146.246,0\C,17,1.41459,13,103.818,12,-148.048,0\C,35,1.41504,33,120.089,32,1.2714,0\C,48,1.39294,35,108.426,33,-143.103,0\C,49,1.35185,48,109.704,35,0.956984,0\C,49,1.40281,48,115.237,35,148.868,0\C,51,1.39176,49,117.88,48,-135.42,0\C,52,1.40875,51,113.61,49,145.296,0\C,53,1.38985,52,118.714,51,-144.159,0\C,50,1.41757,49,108.204,48,-1.6439,0\C,55,1.37869,50,114.756,49,132.784,0\C,45,1.41949,44,106.657,43,1.3524,0\C,5,1.42304,4,110.258,3,-148.164,0\C,53,1.49344,52,107.219,51,2.32673,0\C,59,1.46306,53,119.503,52,-141.18,0\C,59,1.50805,53,127.459,52,140.89,0\C,61,1.55009,59,118.554,53,-142.089,0\C,62,1.3818,61,124.68,59,76.3451,0\H,63,1.08559,62,117.26,61,-0.818161,0\C,63,1.37541,62,126.661,61,164.714,0\H,65,1.08566,63,127.866,62,-176.173,0\C,62,1.40366,61,117.693,59,-111.189,0\H,67,1.08561,62,121.923,61,16.1729,0\C,67,1.39123,62,120.128,61,-175.119,0\H,69,1.08588,67,117.477,62,-174.867,0\C,65,1.40706,63,114.425,62,13.4236,0\H,71,1.08618,65,117.677,63,172.985,0\C,61,1.56314,59,122.618,53,5.01381,0\H,73,1.09656,61,110.821,59,146.582,0\H,73,1.09693,61,105.366,59,25.3425,0\C,73,1.49529,61,113.894,59,-94.8369,0\H,76,1.09691,73,117.948,61,-63.2802,0\H,76,1.09701,73,101.723,61,-176.542,0\C,76,1.5431,73,115.828,61,70.995,0\H,79,1.09703,76,106.836,73,62.3305,0\H,79,1.09744,76,108.493,73,-61.3656,0\C,79,1.49898,76,114.752,73,-172.689,0\O,82,1.20905,79,122.221,76,20.5803,0\O,82,1.41871,79,114.156,76,-161.714,0\C,84,1.47911,82,120.553,79,-177.02,0\H,85,1.09613,84,110.766,82,52.7276,0\H,85,1.09653,84,110.613,82,-66.9721,0\H,85,1.09713,84,110.573,82,176.794,0\H,21,2.88112,20,89.6089,19,-67.664,0\C,89,1.09702,21,146.177,20,-106.66,0\H,90,1.09762,89,107.776,21,45.0105,0\C,90,1.52841,89,108.137,21,164.073,0\O,92,1.16664,90,124.025,89,-93.2057,0\O,92,1.34237,90,113.573,89,94.9279,0\C,94,1.45451,92,120.265,90,170.264,0\H,95,1.09624,94,108.13,92,52.6591,0\H,95,1.09705,94,110.387,92,-65.6298,0\H,95,1.09723,94,112.08,92,172.473,0\C,90,1.56716,89,115.172,21,-76.5951,0\H,99,1.09688,90,110.135,89,-47.7763,0\H,99,1.09775,90,106.054,89,-164.575,0\C,99,1.54893,90,112.475,89,70.9074,0\H,102,1.09641,99,109.768,90,59.2382,0\H,102,1.09719,99,114.403,90,-55.0774,0\C,102,1.52792,99,114.868,90,179.809,0\C,105,1.48477,102,121.588,99,63.6563,0\C,106,1.49158,105,124.589,102,-150.143,0\C,107,1.40733,106,110.31,105,153.827,0\C,108,1.40965,107,121.606,106,149.078,0\C,109,1.38473,108,121.502,107,-146.932,0\C,109,1.39338,108,122.557,107,-1.30006,0\C,110,1.4002,109,109.354,108,146.501,0\C,112,1.38993,110,119.033,109,-132.235,0\C,113,1.35314,112,125.526,110,134.841,0\C,114,1.36941,113,114.147,112,-148.115,0\C,115,1.36911,114,119.945,113,144.767,0\C,115,1.38135,114,104.981,113,-1.54167,0\C,117,1.38447,115,117.695,114,141.759,0\C,112,1.39958,110,106.76,109,1.66202,0\C,119,1.38919,112,120.801,110,-139.688,0\C,120,1.39563,119,117.792,112,138.145,0\C,121,1.35972,120,106.679,119,-148.194,0\C,122,1.40446,121,110.192,120,2.44762,0\C,123,1.39412,122,107.715,121,-0.250102,0\C,123,1.39475,122,120.325,121,136.282,0\C,118,1.4058,117,117.014,115,-141.789,0\C,126,1.36921,118,120.912,117,7.85125,0\C,127,1.40918,126,122.23,118,132.197,0\C,128,1.36238,127,111.638,126,-147.469,0\C,129,1.37309,128,119.362,127,143.954,0\C,128,1.37991,127,117.339,126,-2.04979,0\C,131,1.37882,128,121.038,127,-144.332,0\C,130,1.39449,129,121.436,128,5.00754,0\C,131,1.39727,128,122.103,127,2.24178,0\C,134,1.37903,131,105.814,128,-144.455,0\C,135,1.37679,134,111.696,131,-5.01105,0\C,136,1.3854,135,124.4,134,146.794,0\C,137,1.36378,136,115.923,135,-1.54038,0\C,138,1.39309,137,109.723,136,-137.752,0\C,138,1.39861,137,122.307,136,0.72889,0\C,140,1.3784,138,124.191,137,-136.345,0\C,141,1.38321,140,122.589,138,-0.382535,0\C,142,1.37089,141,114.665,140,1.2663,0\C,134,1.40073,131,119.911,128,-3.38238,0\C,139,1.40378,138,108.015,137,-1.1238,0\C,145,1.40135,139,122.205,138,139.102,0\C,146,1.37549,145,119.376,139,4.22409,0\C,147,1.39298,146,119.838,145,-3.43014,0\C,148,1.38367,147,120.01,146,-142.022,0\C,149,1.38662,148,106.58,147,146.969,0\C,135,1.40767,134,121.467,131,144.874,0\C,129,1.40894,128,109.144,127,-0.012026,0\C,127,1.40977,126,124.14,118,-10.6685,0\C,146,1.40995,145,124.688,139,-133.713,0\C,125,1.41636,123,121.313,122,6.61059,0\C,155,1.40154,125,108.075,123,-145.049,0\C,156,1.40697,155,107.899,125,-2.46542,0\C,157,1.39212,156,118.125,155,145.036,0\C,158,1.37819,157,121.39,156,-3.44004,0\C,159,1.404,158,120.226,157,4.30886,0\C,160,1.39186,159,119.975,158,-0.958997,0\C,117,1.41695,115,108.956,114,-2.56033,0\C,121,1.41798,120,123.517,119,-0.762751,0\C,163,1.34324,121,120.85,120,1.94935,0\C,145,1.47351,139,111.433,138,-4.91588,0\C,105,1.49679,102,114.993,99,-77.9752,0\C,166,1.42732,105,122.33,102,79.037,0\H,167,1.08543,166,123.996,105,2.16127,0\C,167,1.41836,166,116.578,105,178.083,0\H,169,1.08582,167,123.728,166,177.594,0\C,169,1.43625,167,124.389,166,8.44488,0\H,171,1.08693,169,122.626,167,176.073,0\C,171,1.39341,169,117.815,167,-2.66865,0\H,173,1.08632,171,121.786,169,178.153,0\C,173,1.39654,171,118.84,169,-3.4625,0\H,175,1.08576,173,120.757,171,179.071,0\\\@

 Total job time:  873.57s(wall), 8371.67s(cpu) 
 Fri Oct 12 08:16:20 2018

        *************************************************************
        *                                                           *
        *  Thank you very much for using Q-Chem.  Have a nice day.  *
        *                                                           *
        *************************************************************


