
Running Job 1 of 1 ./7/31.qcin
qchem ./7/31.qcin_28738.0 /tmpu/cab_g/afmv_a/scratch_qchem/qchem28738/ 1
/tmpu/appuserlic/qchem4.4/serial-multicore/exe/qcprog.exe_s ./7/31.qcin_28738.0 /tmpu/cab_g/afmv_a/scratch_qchem/qchem28738/
Check license passed

                  Welcome to Q-Chem
     A Quantum Leap Into The Future Of Chemistry


 Q-Chem 4.4, Q-Chem, Inc., Pleasanton, CA (2016)

 Y. Shao,  Z. Gan,  E. Epifanovsky,  A. T. B. Gilbert,  M. Wormit,  
 J. Kussmann,  A. W. Lange,  A. Behn,  J. Deng,  X. Feng,  D. Ghosh,  
 M. Goldey,  P. R. Horn,  L. D. Jacobson,  I. Kaliman,  F. Rob,  
 R. Z. Khaliullin,  T. Kus,  A. Landau,  J. Liu,  E. I. Proynov,  Y. M. Rhee,  
 R. M. Richard,  M. A. Rohrdanz,  R. P. Steele,  E. J. Sundstrom,  
 H. L. Woodcock III,  P. M. Zimmerman,  D. Zuev,  B. Albrecht,  E. Alguire,  
 B. Austin,  S. A. Baeppler,  G. J. O. Beran,  Y. A. Bernard,  E. Berquist,  
 K. Brandhorst,  K. B. Bravaya,  S. T. Brown,  D. Casanova,  C.-M. Chang,  
 Y. Chen,  S. H. Chien,  K. D. Closser,  M. P. Coons,  D. L. Crittenden,  
 S. Dasgupta,  M. Diedenhofen,  R. A. DiStasio Jr.,  H. Do,  A. D. Dutoi,  
 R. G. Edgar,  P.-T. Fang,  S. Fatehi,  Q. Feng,  L. Fusti-Molnar,  
 A. Ghysels,  A. Golubeva-Zadorozhnaya,  J. Gomes,  A. Gunina,  
 M. W. D. Hanson-Heine,  P. H. P. Harbach,  A. W. Hauser,  J. E. Herr,  
 E. G. Hohenstein,  Z. C. Holden,  K. Hui,  T.-C. Jagau,  H. Ji,  B. Kaduk,  
 K. Khistyaev,  Jaehoon Kim,  Jihan Kim,  R. A. King,  P. Klunzinger,  
 K. Koh,  D. Kosenkov,  T. Kowalczyk,  C. M. Krauter,  A. Kunitsa,  
 K. U. Lao,  A. Laurent,  K. V. Lawler,  J. Lee,  D. Lefrancois,  S. Lehtola,  
 S. V. Levchenko,  C. Y. Lin,  Y.-S. Lin,  F. Liu,  E. Livshits,  
 R. C. Lochan,  A. Luenser,  P. Manohar,  S. F. Manzer,  S.-P. Mao,  Y. Mao,  
 N. Mardirossian,  A. V. Marenich,  L. A. Martinez-Martinez,  S. A. Maurer,  
 N. J. Mayhall,  J.-M. Mewes,  A. F. Morrison,  K. Nanda,  T. S. Nguyen-Beck,  
 C. M. Oana,  R. Olivares-Amaya,  D. P. O'Neill,  J. A. Parkhill,  
 T. M. Perrine,  R. Peverati,  P. A. Pieniazek,  F. Plasser,  A. Prociuk,  
 D. R. Rehn,  E. Rosta,  N. J. Russ,  N. Sergueev,  S. M. Sharada,  
 S. Sharma,  D. W. Small,  A. Sodt,  T. Stauch,  T. Stein,  D. Stuck,  
 Y.-C. Su,  A. J. W. Thom,  T. Tsuchimochi,  L. Vogt,  O. Vydrov,  T. Wang,  
 M. A. Watson,  J. Wenzel,  A. White,  C. F. Williams,  V. Vanovschi,  
 K. Yao,  S. Yeganeh,  S. R. Yost,  Z.-Q. You,  I. Y. Zhang,  X. Zhang,  
 Y. Zhao,  B. R. Brooks,  G. K. L. Chan,  D. M. Chipman,  C. J. Cramer,  
 W. A. Goddard III,  M. S. Gordon,  W. J. Hehre,  A. Klamt,  
 H. F. Schaefer III,  M. W. Schmidt,  C. D. Sherrill,  D. G. Truhlar,  
 A. Warshel,  X. Xu,  A. Aspuru-Guzik,  R. Baer,  A. T. Bell,  N. A. Besley,  
 J.-D. Chai,  A. Dreuw,  B. D. Dunietz,  T. R. Furlani,  S. R. Gwaltney,  
 C.-P. Hsu,  Y. Jung,  J. Kong,  D. S. Lambrecht,  W. Liang,  C. Ochsenfeld,  
 V. A. Rassolov,  L. V. Slipchenko,  J. E. Subotnik,  T. Van Voorhis,  
 J. M. Herbert,  A. I. Krylov,  P. M. W. Gill,  M. Head-Gordon

 Contributors to earlier versions of Q-Chem not listed above: 
 R. D. Adamson,  J. Baker,  E. F. C. Byrd,  A. K. Chakraborty,  C.-L. Cheng,  
 H. Dachsel,  R. J. Doerksen,  G. Hawkins,  A. Heyden,  S. Hirata,  
 G. Kedziora,  F. J. Keil,  C. Kelley,  P. P. Korambath,  W. Kurlancheek,  
 A. M. Lee,  M. S. Lee,  D. Liotard,  I. Lotan,  P. E. Maslen,  N. Nair,  
 D. Neuhauser,  R. Olson,  B. Peters,  J. Ritchie,  N. E. Schultz,  
 N. Shenvi,  A. C. Simmonett,  K. S. Thanthiriwatte,  Q. Wu,  W. Zhang

 Please cite Q-Chem as follows:
 Y. Shao et al., Mol. Phys. 113, 184-215 (2015)
 DOI: 10.1080/00268976.2014.952696

 Q-Chem 4.4.2 for Intel X86 Linux

 Parts of Q-Chem use Armadillo 5.200.1 (Boston Tea Smuggler).
 http://arma.sourceforge.net/

 Q-Chem begins on Fri Oct 12 08:45:27 2018  

Host: 
0

     Scratch files written to /tmpu/cab_g/afmv_a/scratch_qchem/qchem28738//
 Dec716 11556_ 22328  22283 4050   
Processing $rem in /tmpu/appuserlic/qchem4.4/serial-multicore/config/preferences.
 MEM_TOTAL  2000 
FILE_GEOM_ORG=        593

Checking the input file for inconsistencies... 	...done.

--------------------------------------------------------------
User input:
--------------------------------------------------------------
$comment
SP
$end

$rem
MEM_STATIC 5000
MEM_TOTAL 20000
JOBTYPE SP
EXCHANGE B3LYP
BASIS 6-31g(d,p)
$end

$molecule
0 1
O           6.745000    -30.363000     13.204000
C           7.918000    -30.761000     13.780000
H           8.823000    -30.652000     13.170000
H           7.873000    -31.835000     14.004000
H           8.108000    -30.234000     14.723000
O           6.300000    -32.142000     11.794000
C           6.038000    -31.013000     12.251000
C           4.870000    -30.142000     11.778000
H           5.093000    -29.105000     12.059000
H           3.968000    -30.323000     12.376000
C           4.408000    -30.320000     10.304000
H           5.198000    -30.330000      9.543000
H           4.016000    -31.338000     10.184000
C           3.376000    -29.213000     10.072000
H           2.526000    -29.574000     10.665000
H           3.641000    -28.248000     10.522000
C           3.012000    -29.060000      8.618000
C           2.010000    -30.097000      8.191000
C           0.642000    -29.861000      8.424000
H           0.158000    -29.029000      8.927000
C          -0.310000    -30.795000      8.040000
H          -1.374000    -30.673000      8.218000
C           0.109000    -31.978000      7.442000
H          -0.590000    -32.739000      7.107000
C           1.445000    -32.241000      7.313000
H           1.741000    -33.241000      7.010000
C           2.429000    -31.324000      7.661000
H           3.493000    -31.539000      7.616000
C           4.686000    -27.566000      3.754000
C           2.421000    -26.828000      3.703000
C           3.435000    -22.414000      3.834000
C           7.252000    -25.796000      7.643000
C           2.919000    -22.174000      7.308000
C           3.327000    -27.785000      4.069000
C           6.330000    -23.226000      8.235000
C           4.485000    -24.168000      2.577000
C           1.288000    -25.822000      7.356000
C           6.394000    -25.627000      8.705000
C           2.727000    -27.627000      8.183000
C           2.095000    -25.297000      8.432000
C           4.608000    -24.509000      9.339000
C           5.338000    -22.293000      7.821000
C           1.890000    -27.495000      5.798000
C           4.623000    -21.599000      5.656000
C           3.979000    -28.385000      7.732000
C           5.290000    -27.781000      8.165000
C           3.291000    -21.847000      5.986000
C           7.460000    -24.217000      4.496000
C           5.854000    -22.660000      3.916000
C           5.774000    -23.791000      3.063000
C           4.200000    -25.552000      2.598000
C           6.160000    -27.893000      7.044000
C           1.754000    -27.129000      7.112000
C           2.834000    -25.722000      2.896000
C           5.918000    -24.362000      8.991000
C           1.471000    -26.646000      4.753000
C           2.341000    -23.967000      8.528000
C           7.552000    -26.530000      5.499000
C           3.316000    -23.494000      2.921000
C           2.914000    -26.290000      8.864000
C           6.447000    -26.061000      3.367000
C           3.632000    -23.604000      8.921000
C           0.908000    -24.962000      6.272000
C           6.853000    -22.536000      6.145000
C           7.253000    -23.357000      7.188000
C           1.253000    -23.611000      6.386000
C           7.167000    -26.915000      6.766000
C           5.348000    -26.574000      8.911000
C           7.856000    -25.107000      5.503000
C           4.148000    -28.586000      6.238000
C           1.432000    -24.247000      4.220000
C           4.223000    -25.876000      9.297000
C           1.929000    -23.110000      7.484000
C           6.812000    -26.968000      4.418000
C           2.521000    -22.283000      4.911000
C           5.136000    -26.457000      3.016000
C           4.696000    -21.963000      4.298000
C           1.080000    -25.347000      4.987000
C           1.513000    -23.183000      5.092000
C           3.067000    -28.239000      5.372000
C           5.461000    -28.367000      5.896000
C           6.946000    -22.959000      4.807000
C           2.290000    -24.432000      3.112000
C           3.965000    -22.435000      8.156000
C           7.726000    -24.672000      6.877000
C           5.693000    -21.827000      6.564000
C           5.750000    -27.851000      4.637000
C           6.728000    -24.729000      3.430000
O           3.737000    -18.183000     -1.169000
C           3.832000    -19.121000     -2.306000
H           3.482000    -20.107000     -1.974000
H           4.868000    -19.284000     -2.629000
H           3.191000    -18.872000     -3.160000
O           4.578000    -16.312000     -2.247000
C           4.114000    -16.879000     -1.273000
C           4.178000    -16.268000      0.083000
H           4.901000    -15.464000     -0.102000
H           4.643000    -16.910000      0.841000
C           2.847000    -15.638000      0.534000
H           3.049000    -15.073000      1.452000
H           2.536000    -14.848000     -0.161000
C           1.767000    -16.658000      0.818000
H           1.473000    -17.110000     -0.137000
H           2.151000    -17.483000      1.431000
C           0.557000    -16.101000      1.492000
C          -0.305000    -15.441000      0.505000
C          -1.101000    -16.231000     -0.369000
H          -1.098000    -17.299000     -0.175000
C          -1.920000    -15.619000     -1.298000
H          -2.446000    -16.206000     -2.044000
C          -1.840000    -14.190000     -1.436000
H          -2.302000    -13.733000     -2.307000
C          -1.041000    -13.432000     -0.572000
H          -0.885000    -12.379000     -0.787000
C          -0.333000    -14.051000      0.387000
H           0.274000    -13.393000      1.002000
C          -1.133000    -13.216000      5.831000
C          -3.007000    -14.723000      5.412000
C          -2.157000    -17.390000      9.053000
C           3.139000    -15.763000      6.323000
C          -0.463000    -19.861000      7.288000
C          -1.975000    -13.874000      4.894000
C           2.698000    -18.224000      7.466000
C          -2.112000    -14.983000      8.873000
C          -1.655000    -18.155000      3.730000
C           3.083000    -16.884000      5.488000
C           0.020000    -16.867000      2.685000
C          -0.412000    -18.790000      3.881000
C           2.053000    -18.850000      5.111000
C           1.704000    -19.135000      8.011000
C          -2.059000    -15.860000      3.658000
C          -0.248000    -18.464000      9.293000
C           0.723000    -15.563000      2.891000
C           1.994000    -15.525000      3.740000
C          -0.980000    -19.172000      8.381000
C           1.355000    -14.860000      9.176000
C          -0.261000    -16.174000      9.987000
C          -0.823000    -14.944000      9.542000
C          -2.380000    -14.163000      7.773000
C           2.019000    -14.446000      4.651000
C          -1.407000    -16.946000      3.108000
C          -3.131000    -14.858000      6.825000
C           2.829000    -18.126000      6.073000
C          -3.116000    -15.916000      4.591000
C          -0.183000    -19.629000      4.993000
C           2.061000    -13.947000      6.992000
C          -2.739000    -16.199000      8.618000
C           0.626000    -18.018000      3.358000
C          -0.051000    -13.318000      7.899000
C           1.044000    -19.624000      5.633000
C          -2.622000    -18.309000      4.732000
C           1.846000    -17.215000      9.343000
C           2.772000    -17.097000      8.298000
C          -2.343000    -19.069000      5.862000
C           2.594000    -14.566000      5.914000
C           2.517000    -16.789000      4.248000
C           2.237000    -14.712000      8.109000
C          -0.004000    -14.453000      3.483000
C          -3.501000    -17.253000      6.561000
C           1.895000    -17.978000      4.018000
C          -1.124000    -19.819000      6.028000
C           0.882000    -13.245000      6.848000
C          -2.233000    -18.539000      8.261000
C          -1.285000    -13.336000      7.222000
C          -0.961000    -17.353000      9.761000
C          -3.338000    -17.190000      5.183000
C          -2.838000    -18.434000      6.968000
C          -1.431000    -14.563000      3.730000
C           0.786000    -13.784000      4.505000
C           1.120000    -16.078000      9.767000
C          -3.392000    -16.125000      7.389000
C           0.882000    -19.772000      7.035000
C           2.932000    -15.835000      7.680000
C           1.157000    -18.410000      9.081000
C           0.226000    -13.204000      5.600000
C           0.154000    -14.102000      9.090000
$end

--------------------------------------------------------------
 ----------------------------------------------------------------
             Standard Nuclear Orientation (Angstroms)
    I     Atom           X                Y                Z
 ----------------------------------------------------------------
    1      O     -11.6024812242    -3.8462921914    -2.4480962652
    2      C     -12.5033745623    -3.8857564653    -3.4742262592
    3      H     -12.5421791882    -3.0029451090    -4.1239525941
    4      H     -13.5207067562    -3.9656423027    -3.0688493233
    5      H     -12.3386698456    -4.7511808240    -4.1276717700
    6      O     -12.6932482161    -2.4805952643    -0.9328189728
    7      C     -11.7050485774    -3.1478521385    -1.2938781616
    8      C     -10.4046434166    -3.2639489147    -0.4925904752
    9      H      -9.6134728907    -3.5767362295    -1.1856072820
   10      H     -10.4288704278    -4.1250593487     0.1870203490
   11      C     -10.0226063812    -2.0584024926     0.4121246887
   12      H     -10.0911798393    -1.0639082367    -0.0456960794
   13      H     -10.7833585645    -1.9589505789     1.1968242697
   14      C      -8.6172391361    -2.3765689942     0.9298214957
   15      H      -8.8203795726    -3.1898212424     1.6382173905
   16      H      -7.9499502040    -2.8193902163     0.1797649336
   17      C      -7.9730687908    -1.1968590560     1.6105196872
   18      C      -8.4680416853    -1.0400231842     3.0219396612
   19      C      -7.8637837111    -1.7947553989     4.0450039723
   20      H      -7.0834160754    -2.5474858565     3.9824562993
   21      C      -8.2933783038    -1.6724775709     5.3590102960
   22      H      -7.8783047224    -2.2483573946     6.1804360995
   23      C      -9.3450325519    -0.8100764571     5.6470062361
   24      H      -9.7145363707    -0.6615771282     6.6576307347
   25      C      -9.9907254390    -0.1592023897     4.6320433579
   26      H     -10.9141167563     0.3621278297     4.8665391519
   27      C      -9.5775695411    -0.2342399824     3.3076866976
   28      H     -10.1121245865     0.2318236312     2.4846547350
   29      C      -5.8843729251     3.6958486834     0.9847652968
   30      C      -4.4536211770     2.8013231167     2.6670980361
   31      C      -0.8252136464     2.4723901386    -0.0264525737
   32      C      -6.1597315897     0.8440267293    -3.0935758057
   33      C      -1.3577126642    -0.9426328080    -0.6947302632
   34      C      -5.7169674757     2.9295694850     2.1590133990
   35      C      -3.6838310134    -0.3843428897    -3.5015861185
   36      C      -2.4280749582     4.2508896924     0.1373764589
   37      C      -4.1357243084    -1.1095798273     2.1732217932
   38      C      -6.0044060878    -0.4733834438    -2.7290577347
   39      C      -6.4655507594    -1.0937092282     1.4088057857
   40      C      -4.2120321702    -1.8671663997     0.9464823360
   41      C      -4.5692808501    -1.8692195586    -1.8159678744
   42      C      -2.4010774936    -0.4973339439    -2.8951824336
   43      C      -5.4373657482     0.7678330778     2.7812903305
   44      C      -0.9624390975     1.1329234877    -1.9191361888
   45      C      -7.4465424270    -0.1126070052     0.7602976700
   46      C      -7.4475277213    -0.1023977850    -0.7466597949
   47      C      -0.8342023632     0.3667706236    -0.7610372600
   48      C      -3.9643622316     3.6024458096    -2.9859117034
   49      C      -1.8694205901     3.3304464540    -2.0493643904
   50      C      -2.6414530356     4.2343692873    -1.2747293701
   51      C      -3.5930896095     4.3092717205     0.9351573819
   52      C      -7.5395553528     1.2661052235    -1.1272060217
   53      C      -5.4090335263    -0.5383760200     2.3664854629
   54      C      -3.3744803974     3.5494942952     2.1007509116
   55      C      -4.7769641742    -1.0813120997    -2.9090746730
   56      C      -4.2529280471     1.4589531283     3.1096916216
   57      C      -3.1140402197    -2.0403685664     0.1699215295
   58      C      -6.3557042500     3.0225611613    -2.4294414478
   59      C      -1.5222591819     3.4101314012     0.7790900048
   60      C      -5.4967160232    -1.8271574730     0.5089658409
   61      C      -5.0006982880     4.5071703174    -1.0343412734
   62      C      -3.3161197180    -1.9688605711    -1.2110018872
   63      C      -2.9438812883    -0.3695757825     2.4748179288
   64      C      -2.6779326971     1.6385213281    -3.6195604104
   65      C      -3.8301965428     0.9384454544    -3.9421620239
   66      C      -1.8643626376    -0.5252380470     1.5986725401
   67      C      -6.9128822413     1.7665393108    -2.3123910433
   68      C      -6.5710292832    -0.9263206465    -1.5013985617
   69      C      -5.1682672130     2.9431110807    -3.2667239377
   70      C      -7.2886294039     1.3493159661     1.1329136965
   71      C      -1.9257363782     1.6154362117     2.3347703476
   72      C      -5.6691470579    -1.7924615909    -0.9198202641
   73      C      -1.9249348582    -1.3486229989     0.4887404579
   74      C      -6.2214128967     3.7981344371    -1.2943392822
   75      C      -0.6897720397     1.1253966158     0.3975167895
   76      C      -4.8330279700     4.3940188277     0.3648804405
   77      C      -0.9564755641     2.4558250087    -1.4375917963
   78      C      -3.0090085316     0.9259232020     2.8575382227
   79      C      -1.2197590619     0.7033307715     1.5806478809
   80      C      -6.3875071589     1.6961864864     2.1848573935
   81      C      -7.4336747468     2.1232678500     0.0064793531
   82      C      -2.7373234640     2.9583339307    -3.1374925407
   83      C      -2.0833669323     2.9772241352     1.9901847127
   84      C      -2.1645946963    -1.2974222202    -1.7456378991
   85      C      -5.0953140332     1.5748604877    -3.7320938424
   86      C      -1.7632601433     0.7275755158    -3.0217361499
   87      C      -6.7282186196     3.3187996223    -0.0823656461
   88      C      -3.9037209323     4.3770466626    -1.8323779365
   89      O       4.2330976014     6.6184501432    -0.5226861460
   90      C       3.6532885177     7.8227704402     0.1058614246
   91      H       2.7878769398     7.5184297667     0.7086545527
   92      H       3.2487512191     8.5268580100    -0.6322471502
   93      H       4.3170098395     8.3354654640     0.8121303674
   94      O       5.9355155213     7.6733220048    -1.6884582428
   95      C       5.3172255013     6.6811869433    -1.3437170776
   96      C       5.4902428380     5.3783333706    -2.0428526647
   97      H       6.0285426822     5.7107027894    -2.9390300172
   98      H       4.5541483763     4.9404744174    -2.4102212751
   99      C       6.3814037925     4.3848136516    -1.2743393459
  100      H       6.5831870527     3.5417747824    -1.9461443629
  101      H       7.3839603061     4.8024919955    -1.1185470542
  102      C       5.7392278008     3.8572643837    -0.0107105374
  103      H       5.6800187357     4.6850273653     0.7062746317
  104      H       4.7025625479     3.5467358717    -0.1916724026
  105      C       6.4651785237     2.7136576639     0.6168117478
  106      C       7.6094896882     3.2116507470     1.3884125825
  107      C       7.3885955692     3.8229784446     2.6529584433
  108      H       6.3687798025     3.7877248210     3.0230962340
  109      C       8.4598449435     4.2900811860     3.3895626838
  110      H       8.2996648531     4.8574114533     4.3007375882
  111      C       9.7643887709     4.2568616440     2.7857855192
  112      H      10.5618542507     4.8242004382     3.2581302038
  113      C       9.9579543600     3.6600859168     1.5344453999
  114      H      10.9171863840     3.7758241781     1.0386141997
  115      C       8.9091085979     3.1250258573     0.8881178513
  116      H       9.1415359551     2.6987563967    -0.0834323896
  117      C       8.4874863972    -2.2842886472    -0.3512014421
  118      C       7.8529121737    -2.3970738487     2.0031734332
  119      C       4.1913719450    -5.0708269415     1.2707544600
  120      C       4.6377960876    -0.8073100202    -3.1756793860
  121      C       1.8607466641    -2.4907002021     1.3135774562
  122      C       8.4180599331    -1.6497498489     0.9186164502
  123      C       2.2514909039    -1.6945981574    -2.1385109659
  124      C       6.4045115299    -5.2083749121     0.3162033961
  125      C       4.7428514350     0.1070884330     2.7048467676
  126      C       3.8621189565     0.0876874057    -2.4311616925
  127      C       5.6327345185     1.5196067092     1.0406670245
  128      C       3.7167455479     0.5155423111     1.8380439423
  129      C       2.5216419482     0.3115384224    -0.6363923166
  130      C       1.6104664003    -2.4443402335    -1.0698873627
  131      C       6.9743484778    -0.2819731092     2.1530523635
  132      C       2.5238680014    -4.4378422040    -0.0231226286
  133      C       6.5269592397     1.4189803289    -0.1540285348
  134      C       5.9162760356     1.1073444018    -1.5206429914
  135      C       2.3661636324    -3.7786689247     1.1640807743
  136      C       5.2895614937    -4.2120983606    -2.8288477084
  137      C       4.4186239874    -5.3842562178    -1.1367227669
  138      C       5.8364766987    -5.3481035349    -1.0136143894
  139      C       7.5273371220    -4.4066593706     0.5414563210
  140      C       6.6440191785     0.1365723455    -2.2436772457
  141      C       5.9208185978     0.6102136393     2.1858791480
  142      C       7.3972278621    -3.7232194836     1.7504689353
  143      C       2.6660464809    -0.3793034857    -1.8828596402
  144      C       7.0258263265    -1.5251091009     2.8185123075
  145      C       2.5864219504    -0.3091941752     1.6507359250
  146      C       6.4618709936    -2.0643650757    -3.1676591214
  147      C       5.5778592409    -5.0461275789     1.4239632058
  148      C       4.2114861141     1.2799184541     0.7807275828
  149      C       7.4894789909    -3.7674113686    -1.8552227885
  150      C       2.0157681812    -0.4408555025     0.3968724673
  151      C       4.6575248933    -1.1529017101     3.3114382450
  152      C       2.9497841850    -3.8699364171    -2.3562354466
  153      C       3.0274476218    -2.5809344749    -2.9001723764
  154      C       3.5774637806    -1.9860455319     3.0437063547
  155      C       6.0105983147    -0.7935127079    -3.0645997773
  156      C       4.4638249754     1.0033170009    -1.6147345303
  157      C       5.4147738689    -2.9232556540    -3.3402412348
  158      C       7.6158933140     0.4571015591    -0.1437906564
  159      C       5.4200354306    -3.3004447053     3.1123032040
  160      C       3.6533531341     1.1408769742    -0.5295075272
  161      C       2.4511472038    -1.5850345397     2.2395806476
  162      C       7.5256560469    -2.4643158838    -2.3853665218
  163      C       3.3855498020    -4.2190555367     2.0312655696
  164      C       8.0604745302    -3.6026440064    -0.5792036623
  165      C       3.6419349675    -5.2807415002     0.0109513461
  166      C       5.7883344921    -1.9823651814     3.3498830225
  167      C       4.0232491583    -3.2705926558     2.8930408851
  168      C       7.9225297518    -0.2865111464     1.0655282591
  169      C       7.6899518662    -0.2763362828    -1.3978756866
  170      C       4.1073582581    -4.6807130273    -2.3084384427
  171      C       6.1863878890    -4.1702074779     2.3210601131
  172      C       1.5637843285    -1.7693200120     0.1855796758
  173      C       4.2814538031    -2.1212882551    -3.3653195037
  174      C       2.1645042510    -3.7271335610    -1.2011022208
  175      C       8.1103183949    -1.5676782094    -1.4668177643
  176      C       6.3959776312    -4.6809529544    -2.0670211530
 ----------------------------------------------------------------
 Molecular Point Group                 C1    NOp =  1
 Largest Abelian Subgroup              C1    NOp =  1
 Nuclear Repulsion Energy = 34145.5004307730 hartrees
 There are      462 alpha and      462 beta electrons
 Requested basis set is 6-31G(d,p)
 There are 676 shells and 2360 basis functions

 Total QAlloc Memory Limit  20000 MB
 Mega-Array Size      4888 MB
 MEM_STATIC part      5000 MB
 A cutoff of  1.0D-08 yielded  36901 shell pairs
 There are    522718 function pairs
 
 -------------------------------------------------------
 OpenMP Integral Computing Module                       
 Release: version 1.0, May 2013, Q-Chem Inc. Pittsburgh 
 -------------------------------------------------------
 Integral Job Info:
 Integral job number is                      11
 Integral operator is                         1
 short-range coefficients                     0
 long-range coefficients              100000000
 Omega coefficients                           0
 if combine SR and LR in K                    0
 Integral screening is                        0
 Integral computing path is                   2
 max size of driver memory is            800000
 size of driver memory is                593474
 size of scratch memory is              2260544
 max col of scratch BK array               1296
 max len of scratch array in speh3          155
 max len of scratch index in speh4           18
 max int batch size is                      520
 min int batch size is                       52
 fixed nKL is                                52
 max L of basis functions is                  2
 order of int derivative is                   0
 number of shells is                        676
 number of basis is                        2360
 number of cartesian basis is              2360
 number of contracted shell pairs         36901
 number of primitive shell pairs         112510
 maxK2 (contraction) of shell pair           36
 max number of K2 of shell pair               1
 max number of CS2 of shell pair           7136
 max number of PS2 of shell pair          34290
 mem total for path MDJ                 1490520
 -------------------------------------------------------
 Smallest overlap matrix eigenvalue = 2.37E-04

 Scale SEOQF with 1.000000e-02/1.000000e-02/1.000000e-02

 Standard Electronic Orientation quadrupole field applied
 Nucleus-field energy     =     0.0000001329 hartrees
 Guess from superposition of atomic densities
 Warning:  Energy on first SCF cycle will be non-variational
 A restricted hybrid HF-DFT SCF calculation will be
 performed using Pulay DIIS extrapolation
 Exchange:     0.2000 Hartree-Fock + 0.0800 Slater + 0.7200 B88
 Correlation:  0.1900 VWN1RPA + 0.8100 LYP
 Using SG-1 standard quadrature grid
 SCF converges when DIIS error is below 1.0E-05
 using 16 threads for integral computing 
 -------------------------------------------------------
 OpenMP BLAS3 based DFT computing Module                
 Release: version 1.0, May 2013, Q-Chem Inc. Pittsburgh 
 -------------------------------------------------------
 ---------------------------------------
  Cycle       Energy         DIIS Error
 ---------------------------------------
    1   -5859.1507755515      1.84E-02
    2   -5803.0734630119      1.31E-03
    3   -5802.1818122244      1.84E-03
    4   -5803.9147913771      6.88E-04
    5   -5804.1788220155      3.12E-04
    6   -5804.2385961574      1.55E-04
    7   -5804.2548032124      5.12E-05
    8   -5804.2557674859      3.68E-05
    9   -5804.2568092486      9.19E-06 Convergence criterion met
 ---------------------------------------
 SCF time:  CPU 8227.52 s  wall 849.62 s
 SCF   energy in the final basis set = -5804.2568092486
 Total energy in the final basis set = -5804.2568092486
 
 --------------------------------------------------------------
 
                    Orbital Energies (a.u.)
 --------------------------------------------------------------
 
 Alpha MOs
 -- Occupied --
-19.198 -19.197 -19.137 -19.135 -10.326 -10.314 -10.252 -10.245
-10.240 -10.239 -10.238 -10.238 -10.235 -10.234 -10.233 -10.232
-10.227 -10.226 -10.226 -10.225 -10.225 -10.224 -10.224 -10.224
-10.224 -10.222 -10.222 -10.221 -10.221 -10.221 -10.220 -10.220
-10.220 -10.219 -10.219 -10.219 -10.218 -10.218 -10.218 -10.218
-10.218 -10.218 -10.218 -10.218 -10.218 -10.217 -10.217 -10.217
-10.217 -10.217 -10.217 -10.217 -10.216 -10.216 -10.216 -10.216
-10.216 -10.216 -10.216 -10.216 -10.216 -10.215 -10.215 -10.215
-10.215 -10.215 -10.215 -10.214 -10.214 -10.214 -10.214 -10.214
-10.214 -10.214 -10.214 -10.214 -10.214 -10.214 -10.214 -10.213
-10.213 -10.213 -10.213 -10.213 -10.213 -10.212 -10.212 -10.212
-10.212 -10.212 -10.212 -10.212 -10.212 -10.211 -10.211 -10.211
-10.211 -10.211 -10.211 -10.210 -10.210 -10.210 -10.210 -10.210
-10.210 -10.209 -10.209 -10.209 -10.209 -10.209 -10.209 -10.209
-10.209 -10.208 -10.208 -10.208 -10.208 -10.207 -10.207 -10.207
-10.207 -10.207 -10.206 -10.206 -10.206 -10.206 -10.205 -10.205
-10.204 -10.204 -10.203 -10.203 -10.202 -10.201 -10.200 -10.200
-10.200 -10.199 -10.198 -10.197 -10.195 -10.195 -10.195 -10.194
-10.193 -10.193 -10.192 -10.191  -1.106  -1.088  -1.010  -1.007
 -0.985  -0.983  -0.969  -0.967  -0.965  -0.962  -0.960  -0.959
 -0.940  -0.932  -0.929  -0.927  -0.926  -0.925  -0.924  -0.923
 -0.922  -0.917  -0.900  -0.896  -0.893  -0.888  -0.887  -0.883
 -0.878  -0.876  -0.859  -0.859  -0.843  -0.841  -0.840  -0.837
 -0.835  -0.834  -0.826  -0.824  -0.809  -0.807  -0.799  -0.798
 -0.796  -0.795  -0.794  -0.794  -0.793  -0.791  -0.783  -0.783
 -0.773  -0.770  -0.769  -0.768  -0.768  -0.766  -0.766  -0.766
 -0.760  -0.755  -0.754  -0.743  -0.737  -0.736  -0.719  -0.718
 -0.714  -0.714  -0.713  -0.712  -0.712  -0.710  -0.708  -0.708
 -0.707  -0.707  -0.706  -0.706  -0.703  -0.703  -0.674  -0.671
 -0.660  -0.659  -0.655  -0.655  -0.652  -0.650  -0.635  -0.632
 -0.630  -0.629  -0.627  -0.624  -0.622  -0.621  -0.618  -0.618
 -0.617  -0.615  -0.615  -0.612  -0.611  -0.610  -0.608  -0.608
 -0.607  -0.606  -0.601  -0.601  -0.579  -0.571  -0.568  -0.564
 -0.564  -0.563  -0.559  -0.558  -0.558  -0.555  -0.552  -0.550
 -0.541  -0.539  -0.537  -0.532  -0.530  -0.528  -0.526  -0.526
 -0.525  -0.523  -0.519  -0.517  -0.515  -0.514  -0.513  -0.511
 -0.510  -0.509  -0.502  -0.500  -0.492  -0.491  -0.488  -0.487
 -0.486  -0.485  -0.482  -0.481  -0.480  -0.479  -0.476  -0.475
 -0.475  -0.473  -0.472  -0.470  -0.469  -0.468  -0.467  -0.467
 -0.467  -0.465  -0.463  -0.463  -0.463  -0.462  -0.461  -0.460
 -0.458  -0.456  -0.454  -0.451  -0.450  -0.449  -0.445  -0.445
 -0.442  -0.441  -0.440  -0.440  -0.439  -0.438  -0.435  -0.432
 -0.431  -0.431  -0.430  -0.429  -0.427  -0.427  -0.426  -0.425
 -0.423  -0.423  -0.422  -0.421  -0.419  -0.419  -0.418  -0.417
 -0.416  -0.416  -0.415  -0.415  -0.414  -0.413  -0.412  -0.411
 -0.411  -0.410  -0.410  -0.407  -0.405  -0.402  -0.398  -0.397
 -0.395  -0.394  -0.393  -0.392  -0.390  -0.387  -0.386  -0.385
 -0.383  -0.378  -0.375  -0.373  -0.370  -0.368  -0.368  -0.367
 -0.366  -0.364  -0.363  -0.362  -0.362  -0.361  -0.359  -0.358
 -0.357  -0.356  -0.355  -0.353  -0.352  -0.351  -0.351  -0.350
 -0.350  -0.349  -0.347  -0.346  -0.345  -0.345  -0.344  -0.343
 -0.340  -0.340  -0.337  -0.337  -0.336  -0.336  -0.335  -0.334
 -0.334  -0.331  -0.330  -0.330  -0.328  -0.327  -0.325  -0.323
 -0.313  -0.312  -0.303  -0.297  -0.290  -0.284  -0.272  -0.270
 -0.270  -0.269  -0.268  -0.268  -0.267  -0.266  -0.264  -0.263
 -0.262  -0.261  -0.260  -0.259  -0.258  -0.257  -0.255  -0.255
 -0.250  -0.249  -0.245  -0.241  -0.224  -0.222  -0.212  -0.211
 -0.210  -0.208  -0.206  -0.204  -0.199  -0.197
 -- Virtual --
 -0.125  -0.122  -0.118  -0.117  -0.111  -0.105  -0.079  -0.077
 -0.074  -0.071  -0.061  -0.057  -0.053  -0.046  -0.027  -0.023
 -0.021  -0.019  -0.018  -0.018  -0.016  -0.014  -0.013  -0.012
 -0.011  -0.008  -0.006  -0.005  -0.004  -0.003  -0.001   0.002
  0.007   0.008   0.035   0.038   0.043   0.044   0.045   0.046
  0.049   0.052   0.056   0.057   0.059   0.063   0.066   0.068
  0.069   0.072   0.081   0.083   0.085   0.087   0.088   0.093
  0.094   0.098   0.098   0.100   0.103   0.105   0.106   0.108
  0.109   0.111   0.113   0.115   0.118   0.120   0.121   0.123
  0.124   0.125   0.127   0.128   0.129   0.132   0.134   0.138
  0.142   0.145   0.145   0.146   0.148   0.153   0.154   0.155
  0.157   0.162   0.163   0.165   0.166   0.167   0.168   0.169
  0.171   0.171   0.173   0.177   0.177   0.179   0.180   0.182
  0.185   0.186   0.188   0.189   0.190   0.191   0.192   0.194
  0.194   0.196   0.197   0.199   0.202   0.203   0.206   0.206
  0.209   0.211   0.214   0.214   0.216   0.217   0.219   0.220
  0.221   0.223   0.224   0.225   0.226   0.227   0.228   0.230
  0.231   0.232   0.233   0.234   0.236   0.238   0.241   0.242
  0.245   0.245   0.248   0.253   0.257   0.258   0.263   0.264
  0.268   0.269   0.273   0.275   0.277   0.280   0.282   0.283
  0.284   0.285   0.289   0.289   0.296   0.299   0.303   0.304
  0.305   0.308   0.311   0.314   0.315   0.316   0.320   0.320
  0.324   0.325   0.325   0.327   0.328   0.330   0.332   0.335
  0.337   0.338   0.342   0.345   0.348   0.351   0.352   0.355
  0.356   0.359   0.367   0.367   0.372   0.374   0.386   0.388
  0.394   0.396   0.398   0.401   0.404   0.405   0.407   0.409
  0.411   0.412   0.415   0.415   0.421   0.423   0.424   0.426
  0.427   0.432   0.433   0.435   0.436   0.438   0.441   0.446
  0.449   0.451   0.452   0.454   0.459   0.461   0.462   0.464
  0.466   0.468   0.469   0.471   0.473   0.475   0.476   0.478
  0.480   0.480   0.481   0.483   0.484   0.485   0.485   0.487
  0.489   0.490   0.491   0.491   0.493   0.495   0.496   0.497
  0.498   0.499   0.499   0.501   0.501   0.503   0.505   0.506
  0.507   0.508   0.509   0.510   0.511   0.513   0.513   0.514
  0.514   0.516   0.516   0.517   0.518   0.518   0.519   0.519
  0.520   0.522   0.522   0.523   0.524   0.525   0.526   0.527
  0.528   0.529   0.530   0.530   0.531   0.531   0.532   0.532
  0.534   0.535   0.536   0.536   0.538   0.538   0.539   0.540
  0.541   0.542   0.543   0.543   0.544   0.545   0.545   0.546
  0.547   0.548   0.548   0.550   0.550   0.550   0.552   0.553
  0.553   0.554   0.555   0.555   0.556   0.557   0.558   0.559
  0.559   0.560   0.561   0.561   0.562   0.563   0.564   0.564
  0.565   0.565   0.566   0.567   0.568   0.570   0.571   0.572
  0.572   0.573   0.575   0.575   0.575   0.576   0.577   0.578
  0.578   0.579   0.580   0.581   0.583   0.584   0.585   0.587
  0.588   0.588   0.589   0.589   0.589   0.590   0.591   0.591
  0.592   0.593   0.595   0.596   0.596   0.597   0.599   0.599
  0.601   0.601   0.605   0.606   0.606   0.607   0.608   0.608
  0.610   0.612   0.612   0.613   0.614   0.616   0.617   0.618
  0.620   0.622   0.622   0.623   0.624   0.625   0.626   0.627
  0.628   0.628   0.630   0.630   0.631   0.631   0.631   0.633
  0.635   0.635   0.637   0.637   0.639   0.639   0.640   0.640
  0.642   0.643   0.644   0.645   0.646   0.647   0.649   0.650
  0.651   0.652   0.653   0.653   0.654   0.655   0.657   0.657
  0.658   0.659   0.660   0.662   0.662   0.662   0.663   0.663
  0.665   0.666   0.666   0.668   0.669   0.670   0.671   0.672
  0.673   0.674   0.675   0.676   0.677   0.678   0.680   0.680
  0.682   0.683   0.683   0.684   0.685   0.686   0.688   0.689
  0.690   0.691   0.691   0.693   0.694   0.696   0.697   0.699
  0.700   0.701   0.702   0.702   0.704   0.705   0.707   0.707
  0.709   0.710   0.711   0.713   0.714   0.716   0.717   0.717
  0.720   0.722   0.722   0.723   0.725   0.726   0.726   0.727
  0.729   0.730   0.731   0.732   0.734   0.735   0.736   0.737
  0.737   0.738   0.739   0.740   0.743   0.744   0.744   0.747
  0.750   0.751   0.752   0.754   0.755   0.757   0.758   0.759
  0.760   0.762   0.763   0.763   0.765   0.767   0.768   0.769
  0.770   0.771   0.772   0.775   0.776   0.776   0.777   0.779
  0.779   0.781   0.782   0.783   0.784   0.785   0.786   0.788
  0.790   0.791   0.792   0.793   0.794   0.794   0.796   0.797
  0.799   0.800   0.801   0.802   0.803   0.804   0.805   0.807
  0.808   0.808   0.809   0.809   0.811   0.812   0.813   0.813
  0.814   0.815   0.816   0.817   0.817   0.818   0.818   0.820
  0.820   0.820   0.821   0.821   0.822   0.822   0.823   0.824
  0.825   0.827   0.827   0.828   0.829   0.830   0.830   0.833
  0.835   0.836   0.839   0.840   0.841   0.843   0.845   0.848
  0.850   0.852   0.854   0.854   0.855   0.857   0.861   0.863
  0.865   0.870   0.871   0.875   0.881   0.882   0.887   0.888
  0.893   0.896   0.896   0.898   0.899   0.901   0.908   0.910
  0.912   0.913   0.915   0.917   0.920   0.923   0.925   0.926
  0.927   0.929   0.930   0.933   0.933   0.934   0.937   0.938
  0.939   0.941   0.943   0.945   0.946   0.947   0.951   0.953
  0.954   0.956   0.958   0.961   0.964   0.967   0.969   0.971
  0.973   0.975   0.978   0.980   0.981   0.986   0.988   0.991
  0.993   0.996   0.997   1.000   1.000   1.003   1.006   1.008
  1.009   1.009   1.014   1.015   1.017   1.019   1.021   1.022
  1.023   1.026   1.026   1.027   1.028   1.030   1.031   1.031
  1.033   1.036   1.037   1.038   1.040   1.042   1.043   1.044
  1.047   1.049   1.050   1.053   1.054   1.055   1.057   1.059
  1.060   1.062   1.064   1.065   1.067   1.068   1.069   1.072
  1.073   1.075   1.077   1.078   1.080   1.081   1.084   1.085
  1.087   1.089   1.090   1.091   1.093   1.095   1.096   1.099
  1.102   1.102   1.104   1.106   1.106   1.107   1.109   1.111
  1.113   1.117   1.119   1.121   1.122   1.124   1.129   1.129
  1.132   1.135   1.137   1.139   1.141   1.141   1.145   1.147
  1.148   1.149   1.153   1.156   1.158   1.159   1.162   1.163
  1.164   1.165   1.167   1.169   1.170   1.171   1.174   1.175
  1.176   1.177   1.179   1.180   1.183   1.184   1.187   1.187
  1.188   1.190   1.192   1.193   1.195   1.195   1.197   1.201
  1.203   1.206   1.208   1.209   1.212   1.213   1.216   1.218
  1.221   1.223   1.226   1.234   1.236   1.237   1.239   1.243
  1.245   1.246   1.249   1.250   1.251   1.253   1.256   1.258
  1.260   1.262   1.263   1.269   1.271   1.271   1.274   1.277
  1.277   1.280   1.282   1.284   1.285   1.289   1.289   1.292
  1.295   1.296   1.299   1.302   1.303   1.303   1.308   1.312
  1.316   1.318   1.319   1.321   1.327   1.328   1.330   1.331
  1.336   1.338   1.340   1.343   1.345   1.348   1.350   1.352
  1.353   1.354   1.356   1.359   1.362   1.363   1.365   1.369
  1.370   1.373   1.375   1.375   1.376   1.378   1.382   1.383
  1.387   1.388   1.390   1.395   1.395   1.397   1.399   1.403
  1.403   1.404   1.412   1.415   1.418   1.422   1.423   1.428
  1.430   1.432   1.433   1.437   1.442   1.444   1.447   1.448
  1.453   1.454   1.456   1.459   1.461   1.462   1.463   1.464
  1.468   1.470   1.472   1.472   1.474   1.475   1.476   1.479
  1.480   1.482   1.485   1.488   1.488   1.491   1.496   1.498
  1.499   1.503   1.505   1.507   1.509   1.512   1.516   1.519
  1.520   1.523   1.525   1.527   1.528   1.532   1.533   1.537
  1.539   1.542   1.546   1.550   1.553   1.555   1.556   1.558
  1.559   1.562   1.565   1.568   1.569   1.570   1.574   1.576
  1.577   1.579   1.580   1.582   1.583   1.584   1.586   1.588
  1.593   1.595   1.599   1.602   1.603   1.606   1.607   1.612
  1.620   1.623   1.626   1.628   1.633   1.639   1.641   1.646
  1.647   1.652   1.654   1.659   1.659   1.662   1.666   1.673
  1.679   1.682   1.688   1.692   1.692   1.695   1.701   1.702
  1.704   1.705   1.707   1.709   1.712   1.714   1.717   1.718
  1.720   1.721   1.722   1.723   1.726   1.729   1.729   1.731
  1.733   1.734   1.736   1.741   1.742   1.744   1.745   1.750
  1.751   1.752   1.753   1.756   1.756   1.759   1.759   1.761
  1.762   1.764   1.764   1.765   1.768   1.769   1.770   1.770
  1.773   1.775   1.775   1.777   1.779   1.780   1.781   1.782
  1.783   1.784   1.785   1.786   1.787   1.788   1.791   1.791
  1.793   1.794   1.795   1.796   1.797   1.799   1.801   1.802
  1.803   1.804   1.805   1.805   1.807   1.809   1.811   1.813
  1.814   1.815   1.816   1.818   1.820   1.821   1.824   1.825
  1.828   1.830   1.832   1.833   1.834   1.837   1.839   1.843
  1.844   1.846   1.848   1.850   1.851   1.852   1.854   1.856
  1.857   1.859   1.862   1.864   1.865   1.867   1.869   1.871
  1.872   1.874   1.875   1.879   1.881   1.882   1.885   1.886
  1.886   1.889   1.890   1.891   1.894   1.897   1.903   1.903
  1.909   1.910   1.912   1.914   1.916   1.918   1.922   1.923
  1.924   1.925   1.926   1.929   1.932   1.934   1.935   1.938
  1.939   1.943   1.945   1.947   1.948   1.950   1.953   1.955
  1.958   1.961   1.963   1.964   1.965   1.968   1.973   1.974
  1.975   1.975   1.976   1.979   1.979   1.983   1.984   1.988
  1.988   1.991   1.992   1.993   1.995   1.996   1.998   2.000
  2.001   2.003   2.004   2.006   2.007   2.008   2.009   2.010
  2.011   2.013   2.015   2.016   2.017   2.018   2.018   2.020
  2.021   2.022   2.023   2.025   2.026   2.027   2.029   2.030
  2.031   2.032   2.032   2.034   2.035   2.037   2.037   2.038
  2.040   2.042   2.044   2.045   2.046   2.047   2.048   2.050
  2.051   2.052   2.053   2.055   2.056   2.057   2.059   2.059
  2.060   2.061   2.063   2.063   2.065   2.067   2.068   2.069
  2.070   2.073   2.074   2.076   2.077   2.078   2.080   2.080
  2.082   2.084   2.085   2.088   2.089   2.089   2.091   2.091
  2.092   2.093   2.097   2.097   2.099   2.101   2.103   2.106
  2.110   2.110   2.112   2.115   2.117   2.123   2.129   2.130
  2.131   2.133   2.134   2.135   2.139   2.140   2.143   2.150
  2.154   2.156   2.159   2.162   2.166   2.167   2.169   2.171
  2.177   2.181   2.184   2.195   2.196   2.197   2.201   2.202
  2.203   2.210   2.212   2.217   2.219   2.222   2.224   2.232
  2.233   2.235   2.239   2.239   2.241   2.245   2.247   2.252
  2.253   2.256   2.256   2.259   2.262   2.265   2.266   2.268
  2.270   2.271   2.273   2.276   2.277   2.279   2.281   2.283
  2.288   2.289   2.291   2.292   2.294   2.300   2.302   2.305
  2.306   2.307   2.309   2.311   2.312   2.316   2.319   2.323
  2.325   2.325   2.327   2.329   2.332   2.336   2.336   2.338
  2.342   2.346   2.347   2.348   2.350   2.352   2.354   2.356
  2.358   2.360   2.363   2.363   2.364   2.366   2.370   2.372
  2.373   2.375   2.376   2.377   2.378   2.380   2.381   2.382
  2.382   2.385   2.386   2.390   2.391   2.394   2.396   2.397
  2.398   2.399   2.400   2.402   2.403   2.405   2.407   2.409
  2.411   2.413   2.415   2.417   2.420   2.422   2.423   2.425
  2.427   2.430   2.432   2.437   2.438   2.442   2.445   2.447
  2.448   2.451   2.453   2.454   2.457   2.458   2.459   2.462
  2.462   2.463   2.465   2.469   2.471   2.472   2.477   2.478
  2.481   2.483   2.484   2.487   2.489   2.490   2.491   2.492
  2.495   2.496   2.500   2.503   2.504   2.505   2.507   2.508
  2.511   2.512   2.513   2.517   2.518   2.520   2.521   2.524
  2.526   2.528   2.532   2.536   2.536   2.539   2.540   2.545
  2.547   2.549   2.552   2.554   2.558   2.560   2.564   2.567
  2.571   2.572   2.577   2.581   2.582   2.585   2.590   2.590
  2.592   2.594   2.595   2.596   2.599   2.602   2.604   2.606
  2.608   2.612   2.614   2.615   2.616   2.618   2.620   2.622
  2.624   2.624   2.626   2.631   2.632   2.633   2.634   2.636
  2.640   2.641   2.643   2.645   2.647   2.649   2.651   2.653
  2.655   2.656   2.657   2.658   2.659   2.661   2.664   2.666
  2.667   2.668   2.671   2.671   2.673   2.674   2.676   2.676
  2.680   2.681   2.684   2.685   2.686   2.688   2.689   2.692
  2.694   2.696   2.696   2.700   2.703   2.705   2.707   2.710
  2.712   2.715   2.717   2.719   2.721   2.722   2.726   2.730
  2.731   2.735   2.737   2.739   2.741   2.743   2.745   2.747
  2.748   2.750   2.754   2.756   2.758   2.761   2.763   2.765
  2.767   2.769   2.771   2.772   2.774   2.776   2.778   2.781
  2.784   2.786   2.788   2.789   2.791   2.794   2.796   2.800
  2.802   2.805   2.806   2.814   2.818   2.819   2.821   2.823
  2.827   2.835   2.836   2.839   2.841   2.842   2.844   2.846
  2.850   2.852   2.854   2.858   2.859   2.860   2.861   2.863
  2.864   2.866   2.870   2.871   2.876   2.877   2.879   2.880
  2.881   2.884   2.887   2.888   2.891   2.892   2.893   2.896
  2.896   2.898   2.901   2.902   2.904   2.906   2.907   2.909
  2.911   2.912   2.914   2.916   2.919   2.921   2.922   2.924
  2.925   2.928   2.930   2.933   2.934   2.936   2.936   2.939
  2.942   2.943   2.944   2.947   2.950   2.953   2.954   2.957
  2.959   2.960   2.968   2.972   2.974   2.980   2.983   2.987
  2.990   2.994   2.995   2.999   3.003   3.005   3.007   3.010
  3.016   3.018   3.021   3.022   3.024   3.025   3.028   3.029
  3.032   3.035   3.038   3.041   3.045   3.048   3.052   3.054
  3.058   3.058   3.061   3.061   3.065   3.068   3.071   3.075
  3.077   3.080   3.081   3.087   3.094   3.098   3.105   3.107
  3.112   3.119   3.134   3.139   3.140   3.145   3.151   3.157
  3.159   3.162   3.165   3.175   3.182   3.186   3.192   3.199
  3.200   3.203   3.210   3.216   3.231   3.237   3.238   3.248
  3.251   3.254   3.263   3.264   3.266   3.272   3.279   3.283
  3.297   3.300   3.308   3.319   3.323   3.323   3.333   3.335
  3.340   3.349   3.351   3.352   3.353   3.363   3.375   3.395
  3.396   3.397   3.421   3.425   3.432   3.438   3.449   3.451
  3.462   3.467   3.473   3.480   3.484   3.491   3.495   3.498
  3.500   3.506   3.511   3.512   3.517   3.526   3.528   3.547
  3.563   3.566   3.580   3.587   3.590   3.594   3.597   3.614
  3.616   3.628   3.691   3.700   3.877   3.890   4.002   4.023
  4.069   4.074   4.082   4.084   4.084   4.091   4.094   4.097
  4.098   4.102   4.107   4.109   4.112   4.113   4.118   4.126
  4.127   4.132   4.135   4.141   4.145   4.145   4.150   4.153
  4.155   4.160   4.163   4.165   4.169   4.170   4.172   4.175
  4.180   4.191   4.196   4.201   4.206   4.223   4.236   4.238
  4.242   4.245   4.248   4.250   4.251   4.254   4.259   4.266
  4.269   4.272   4.279   4.283   4.287   4.291   4.294   4.299
  4.302   4.311   4.320   4.336   4.375   4.378   4.390   4.392
  4.394   4.398   4.404   4.405   4.408   4.411   4.415   4.416
  4.422   4.422   4.424   4.427   4.447   4.457   4.467   4.474
  4.480   4.487   4.500   4.508   4.528   4.533   4.546   4.555
  4.558   4.571   4.605   4.619   4.623   4.634   4.640   4.643
  4.651   4.660   4.669   4.691   4.693   4.696   4.700   4.705
  4.706   4.709   4.711   4.724   4.741   4.755   4.816   4.830
  4.844   4.854   4.865   4.870   4.880   4.880   4.892   4.901
  4.911   4.924   4.959   4.964   4.966   4.970   4.974   4.982
  4.994   4.995   5.004   5.006   5.167   5.178   5.186   5.189
  5.203   5.214   5.215   5.221   5.326   5.329   5.344   5.354
  5.362   5.368
 --------------------------------------------------------------
 
          Ground-State Mulliken Net Atomic Charges

     Atom                 Charge (a.u.)
  ----------------------------------------
      1 O                    -0.435427
      2 C                    -0.086050
      3 H                     0.119018
      4 H                     0.121556
      5 H                     0.121600
      6 O                    -0.485780
      7 C                     0.597410
      8 C                    -0.266703
      9 H                     0.128815
     10 H                     0.135857
     11 C                    -0.182357
     12 H                     0.111707
     13 H                     0.127627
     14 C                    -0.182536
     15 H                     0.113566
     16 H                     0.109278
     17 C                     0.022608
     18 C                     0.068546
     19 C                    -0.098852
     20 H                     0.094077
     21 C                    -0.094742
     22 H                     0.091463
     23 C                    -0.070164
     24 H                     0.086884
     25 C                    -0.094219
     26 H                     0.087942
     27 C                    -0.092138
     28 H                     0.098465
     29 C                     0.010678
     30 C                    -0.006403
     31 C                    -0.006728
     32 C                     0.000448
     33 C                     0.002420
     34 C                    -0.010871
     35 C                     0.001236
     36 C                    -0.012823
     37 C                    -0.027503
     38 C                    -0.009038
     39 C                    -0.089684
     40 C                     0.034939
     41 C                     0.000948
     42 C                     0.003025
     43 C                     0.012424
     44 C                     0.015663
     45 C                    -0.098586
     46 C                     0.034558
     47 C                     0.005158
     48 C                     0.011239
     49 C                    -0.006910
     50 C                     0.000736
     51 C                    -0.007388
     52 C                    -0.021221
     53 C                     0.020891
     54 C                     0.008084
     55 C                     0.009022
     56 C                    -0.019378
     57 C                    -0.013283
     58 C                    -0.011341
     59 C                    -0.002547
     60 C                     0.037054
     61 C                    -0.008489
     62 C                    -0.013816
     63 C                    -0.031980
     64 C                     0.002080
     65 C                    -0.006920
     66 C                     0.017078
     67 C                     0.020011
     68 C                     0.011055
     69 C                    -0.014060
     70 C                     0.046714
     71 C                     0.029524
     72 C                    -0.042094
     73 C                     0.011958
     74 C                    -0.011631
     75 C                     0.010959
     76 C                     0.002786
     77 C                    -0.018423
     78 C                     0.034424
     79 C                    -0.018344
     80 C                    -0.004089
     81 C                     0.002403
     82 C                     0.001288
     83 C                    -0.028820
     84 C                    -0.009632
     85 C                    -0.014859
     86 C                    -0.016694
     87 C                     0.009790
     88 C                     0.021188
     89 O                    -0.465718
     90 C                    -0.094229
     91 H                     0.127268
     92 H                     0.134131
     93 H                     0.132789
     94 O                    -0.469421
     95 C                     0.601692
     96 C                    -0.251426
     97 H                     0.133108
     98 H                     0.126861
     99 C                    -0.200943
    100 H                     0.105430
    101 H                     0.117222
    102 C                    -0.172955
    103 H                     0.115768
    104 H                     0.108666
    105 C                     0.014783
    106 C                     0.095935
    107 C                    -0.093276
    108 H                     0.091411
    109 C                    -0.096524
    110 H                     0.094032
    111 C                    -0.095263
    112 H                     0.089677
    113 C                    -0.082390
    114 H                     0.093479
    115 C                    -0.099127
    116 H                     0.088951
    117 C                     0.020641
    118 C                    -0.008642
    119 C                     0.002781
    120 C                    -0.007617
    121 C                    -0.001726
    122 C                    -0.022380
    123 C                    -0.004506
    124 C                    -0.000312
    125 C                    -0.013469
    126 C                    -0.009354
    127 C                    -0.122028
    128 C                     0.017296
    129 C                    -0.035753
    130 C                    -0.022671
    131 C                     0.033575
    132 C                     0.005854
    133 C                    -0.053384
    134 C                     0.001676
    135 C                     0.018617
    136 C                    -0.004079
    137 C                    -0.004113
    138 C                     0.004809
    139 C                    -0.034273
    140 C                    -0.003734
    141 C                     0.042883
    142 C                     0.026812
    143 C                     0.012454
    144 C                    -0.010858
    145 C                    -0.012947
    146 C                    -0.000942
    147 C                     0.017413
    148 C                     0.042730
    149 C                     0.013746
    150 C                     0.020727
    151 C                     0.009842
    152 C                    -0.009377
    153 C                    -0.002601
    154 C                     0.005009
    155 C                     0.015084
    156 C                     0.020675
    157 C                     0.027043
    158 C                     0.008787
    159 C                    -0.002258
    160 C                    -0.012699
    161 C                    -0.040543
    162 C                    -0.020541
    163 C                    -0.021086
    164 C                    -0.022818
    165 C                    -0.001819
    166 C                    -0.018530
    167 C                     0.004052
    168 C                    -0.016986
    169 C                     0.008410
    170 C                     0.023072
    171 C                    -0.006454
    172 C                     0.022229
    173 C                    -0.017455
    174 C                    -0.001134
    175 C                     0.014581
    176 C                    -0.017321
  ----------------------------------------
  Sum of atomic charges =     0.000000

 -----------------------------------------------------------------
                    Cartesian Multipole Moments
 -----------------------------------------------------------------
    Charge (ESU x 10^10)
                 0.0000
    Dipole Moment (Debye)
         X      -0.9909      Y      -0.6635      Z       1.7633
       Tot       2.1287
    Quadrupole Moments (Debye-Ang)
        XX    -808.1811     XY      20.6776     YY    -804.4962
        XZ       8.2316     YZ      17.6765     ZZ    -792.0715
    Octopole Moments (Debye-Ang^2)
       XXX     185.8930    XXY    -106.1538    XYY    -268.3069
       YYY     -24.3017    XXZ      -9.6106    XYZ      62.7593
       YYZ     108.8867    XZZ    -213.9550    YZZ      -3.5621
       ZZZ      49.6843
    Hexadecapole Moments (Debye-Ang^3)
      XXXX -175504.9203   XXXY    3634.9716   XXYY  -35799.4087
      XYYY     854.3084   YYYY  -43716.3492   XXXZ    1688.7812
      XXYZ    1744.9323   XYYZ    1225.6865   YYYZ    1171.1487
      XXZZ  -30329.7432   XYZZ    1255.1165   YYZZ  -10893.5026
      XZZZ    -105.4277   YZZZ     138.5301   ZZZZ  -22735.2243
 -----------------------------------------------------------------
Archival summary:
1\1\mn251\SP\ProcedureUnspecified\6-31G**\428\afmv_a\FriOct1208:59:532018FriOct1208:59:532018\0\\#,ProcedureUnspecified,6-31G**,\\0,1\C\C,1,1.39234\C,2,1.36339,1,120.869\C,3,1.37806,2,117.978,1,133.536,0\C,4,1.38643,3,106.108,2,-140.505,0\C,5,1.35242,4,109.394,3,-1.9742,0\C,5,1.3766,4,125.628,3,147.393,0\C,3,1.38752,2,117.773,1,-2.1969,0\C,8,1.38332,3,122.476,2,-3.28042,0\C,9,1.37374,8,119.818,3,1.45732,0\C,10,1.37162,9,109.921,8,140.022,0\C,1,1.3945,2,113.654,3,-145.656,0\C,12,1.40783,1,103.404,2,2.69055,0\C,13,1.40453,12,115.684,1,139.154,0\C,7,1.4101,5,121.774,4,-137.016,0\C,15,1.37078,7,121.342,5,-9.08882,0\C,16,1.40888,15,116.521,7,5.4594,0\C,9,1.41214,8,120.637,3,139.068,0\C,18,1.35596,9,119.34,8,-1.50731,0\C,19,1.35773,18,125.831,9,-143.515,0\C,18,1.39746,9,108.651,8,-137.994,0\C,21,1.39511,18,124.198,9,144.697,0\C,22,1.36338,21,121.721,18,-141.207,0\C,23,1.38152,22,106.569,21,139.837,0\C,24,1.37571,23,119.156,22,-140.312,0\C,4,1.41353,3,124.151,2,3.06121,0\C,26,1.40321,4,117.583,3,-2.31109,0\C,27,1.39254,26,108.898,4,-137.33,0\C,28,1.4132,27,107.52,26,2.03237,0\C,29,1.36742,28,120.974,27,144.363,0\C,30,1.40607,29,117.605,28,-142.937,0\C,29,1.40842,28,108.478,27,-2.69368,0\C,31,1.41174,30,104.259,29,147.775,0\C,33,1.39099,31,118.974,30,-147.466,0\C,34,1.37437,33,118.87,31,-0.171879,0\C,33,1.39839,31,110.301,30,1.33696,0\C,36,1.38131,33,118.981,31,-143.69,0\C,37,1.37904,36,118.746,33,3.88912,0\C,31,1.41211,30,123.189,29,-0.423787,0\C,39,1.36771,31,117.989,30,3.95888,0\C,39,1.40411,31,115.808,30,138.36,0\C,30,1.41377,29,121.685,28,3.83535,0\C,42,1.36277,30,118.455,29,-7.42311,0\C,43,1.38732,42,120.453,30,4.60858,0\C,43,1.3908,42,120.25,30,-135.472,0\C,45,1.39409,43,108.007,42,143.52,0\C,45,1.40106,43,117.762,42,1.74766,0\C,46,1.40635,45,120.533,43,-142.295,0\C,48,1.38632,46,121.237,45,0.714695,0\C,49,1.40189,48,108.456,46,139.641,0\C,13,1.41733,12,110.605,1,-0.103942,0\C,11,1.42039,10,124.912,9,-141.094,0\C,52,1.38681,11,119.657,10,-1.69632,0\C,22,1.4208,21,115.195,18,-2.26549,0\C,54,1.37907,22,105.914,21,-143.383,0\C,55,1.42012,54,122.95,22,149.483,0\C,56,1.42341,55,117.105,54,-133.169,0\C,49,1.43167,48,118.415,46,2.0256,0\C,56,1.50699,55,121.811,54,-0.359614,0\C,59,1.47503,56,125.531,55,72.6571,0\C,60,1.5039,59,125.577,56,154.914,0\C,61,1.40071,60,120.808,59,-62.6915,0\H,62,1.08644,61,118.815,60,-3.49827,0\C,62,1.38933,61,117.457,60,-178.8,0\H,64,1.08601,62,118.986,61,172.908,0\C,64,1.36774,62,122.771,61,-1.41485,0\H,66,1.08625,64,117.695,62,-177.561,0\C,66,1.3902,64,119.908,62,5.24402,0\H,68,1.08566,66,117.486,64,173.642,0\C,68,1.38785,66,119.01,64,-3.88573,0\H,70,1.08604,68,109.756,66,176.498,0\C,60,1.50666,59,117.889,56,2.51041,0\H,72,1.09725,60,111.397,59,-53.8804,0\H,72,1.09748,60,111.576,59,-170.57,0\C,20,1.51205,19,115.391,18,156.29,0\C,72,1.53111,60,112.488,59,75.9026,0\H,76,1.09696,72,112.761,60,-41.0479,0\H,76,1.09745,72,114.415,60,72.3053,0\C,76,1.55493,72,105.138,60,-168.861,0\H,79,1.09726,76,104.685,72,-63.3774,0\H,79,1.0973,76,114.288,72,45.664,0\C,79,1.53186,76,117.011,72,172.789,0\O,82,1.24585,79,124.218,76,28.9935,0\O,82,1.35298,79,110.045,76,-149.656,0\C,84,1.36606,82,127.281,79,173.696,0\H,85,1.09682,84,116.426,82,-75.1668,0\H,85,1.09685,84,111.794,82,161.847,0\H,85,1.09803,84,109.621,82,42.6733,0\C,2,3.12619,1,79.4336,3,-95.9465,0\C,89,1.37464,2,92.5459,1,-73.3791,0\C,89,1.38389,2,108,1,165.509,0\C,90,1.40712,89,124.158,2,-117.039,0\C,92,1.36143,90,111.02,89,-136.634,0\C,93,1.36638,92,106.37,90,-0.115005,0\C,94,1.39618,93,111.515,92,0.297778,0\C,94,1.39893,93,120.169,92,144.74,0\C,96,1.37458,94,122.769,93,-141.025,0\C,96,1.37736,94,120.22,93,-1.64697,0\C,98,1.35253,96,108.481,94,-144.494,0\C,99,1.36524,98,110.173,96,0.220883,0\C,99,1.3797,98,119.106,96,142.464,0\C,100,1.39223,99,127.224,98,143.81,0\C,102,1.37406,100,122.155,99,-138.462,0\C,98,1.39291,96,120.495,94,2.00181,0\C,103,1.40171,102,107.261,100,137.262,0\C,105,1.38965,103,121.929,102,-138.963,0\C,106,1.39034,105,122.596,103,132.657,0\C,107,1.39515,106,119.664,105,4.27686,0\C,108,1.39169,107,120.055,106,-1.08645,0\C,108,1.39367,107,121.047,106,-143.115,0\C,107,1.39758,106,110.93,105,-142.54,0\C,109,1.39794,108,106.378,107,-145.557,0\C,112,1.39489,109,110.226,108,1.56258,0\C,106,1.40061,105,118.093,103,0.344916,0\C,114,1.36705,106,111.171,105,141.921,0\C,115,1.39164,114,125.553,106,-146.726,0\C,116,1.37148,115,118.495,114,4.23324,0\C,95,1.40257,94,119.689,93,148.06,0\C,118,1.40279,95,121.87,94,-2.09102,0\C,119,1.40122,118,109.865,95,-141.94,0\C,110,1.40351,108,120.928,107,-0.976046,0\C,121,1.38904,110,122.663,108,138.983,0\C,122,1.40293,121,110.037,110,-140.031,0\C,123,1.39009,122,106.093,121,0.0290147,0\C,124,1.36802,123,109.317,122,1.29415,0\C,123,1.401,122,119.637,121,140.059,0\C,126,1.38205,123,122.813,122,3.06879,0\C,127,1.38094,126,115.086,123,-7.84909,0\C,126,1.40395,123,118.977,122,-135.086,0\C,129,1.39533,126,111.597,123,144.723,0\C,120,1.40406,119,104.88,118,3.13403,0\C,131,1.40347,120,112.996,119,-7.03468,0\C,104,1.40707,98,119.759,96,-135.61,0\C,133,1.35979,104,118.555,98,-3.98783,0\C,134,1.37854,133,122.494,104,142.226,0\C,135,1.40442,134,105.867,133,-144.297,0\C,101,1.40727,99,117.529,98,-141.689,0\C,128,1.41098,127,125.862,126,13.0165,0\C,91,1.41167,89,104.622,2,-108.485,0\C,104,1.41237,98,121.759,96,1.20967,0\C,135,1.42123,134,118.529,133,-0.73487,0\C,102,1.4228,100,115.582,99,1.38889,0\C,142,1.36667,102,104.786,100,-139.348,0\C,113,1.42484,112,125.444,109,144.037,0\C,128,1.44284,127,121.42,126,-143.464,0\C,145,1.45239,128,119.159,127,13.0208,0\C,146,1.45296,145,120.201,128,-13.3322,0\C,130,1.46457,129,107.412,126,6.57271,0\C,147,1.50805,146,126.545,145,-66.4935,0\C,149,1.46725,147,121.887,146,-6.28237,0\C,150,1.39528,149,121.118,147,-41.1053,0\H,151,1.08611,150,122.986,149,-0.402912,0\C,151,1.34317,150,122.01,149,-175.135,0\H,153,1.08599,151,120.829,150,166.549,0\C,153,1.39981,151,119.473,150,-3.80263,0\H,155,1.08671,153,120.641,151,170.801,0\C,150,1.42183,149,119.503,147,140.467,0\H,157,1.08548,150,115.802,149,-6.3258,0\C,157,1.38143,150,119.943,149,-179.734,0\H,159,1.08525,157,120.664,150,-173.037,0\C,149,1.49286,147,117.563,146,-147.253,0\H,161,1.09671,149,109.247,147,-173.659,0\H,161,1.0972,149,108.178,147,-59.0685,0\C,161,1.51243,149,114.326,147,65.4512,0\H,164,1.0967,161,108.771,149,-50.1008,0\H,164,1.0972,161,113.711,149,63.0548,0\C,164,1.54009,161,113.344,149,-169.308,0\H,167,1.09679,164,113.795,161,62.9796,0\H,167,1.09698,164,108.613,161,-179.928,0\C,167,1.48867,164,113.421,161,-69.5793,0\O,170,1.21879,167,121.374,164,-102.218,0\O,170,1.36138,167,109.6,164,89.7872,0\C,172,1.47704,170,122.118,167,168.093,0\H,173,1.09645,172,114.693,170,64.0078,0\H,173,1.09736,172,112.435,170,-63.8881,0\H,173,1.09769,172,108.488,170,-179.406,0\\\@

 Total job time:  865.40s(wall), 8256.25s(cpu) 
 Fri Oct 12 08:59:53 2018

        *************************************************************
        *                                                           *
        *  Thank you very much for using Q-Chem.  Have a nice day.  *
        *                                                           *
        *************************************************************


