
Running Job 1 of 1 ./7/7.qcin
qchem ./7/7.qcin_29515.0 /tmpu/cab_g/afmv_a/scratch_qchem/qchem29515/ 1
/tmpu/appuserlic/qchem4.4/serial-multicore/exe/qcprog.exe_s ./7/7.qcin_29515.0 /tmpu/cab_g/afmv_a/scratch_qchem/qchem29515/
Check license passed

                  Welcome to Q-Chem
     A Quantum Leap Into The Future Of Chemistry


 Q-Chem 4.4, Q-Chem, Inc., Pleasanton, CA (2016)

 Y. Shao,  Z. Gan,  E. Epifanovsky,  A. T. B. Gilbert,  M. Wormit,  
 J. Kussmann,  A. W. Lange,  A. Behn,  J. Deng,  X. Feng,  D. Ghosh,  
 M. Goldey,  P. R. Horn,  L. D. Jacobson,  I. Kaliman,  F. Rob,  
 R. Z. Khaliullin,  T. Kus,  A. Landau,  J. Liu,  E. I. Proynov,  Y. M. Rhee,  
 R. M. Richard,  M. A. Rohrdanz,  R. P. Steele,  E. J. Sundstrom,  
 H. L. Woodcock III,  P. M. Zimmerman,  D. Zuev,  B. Albrecht,  E. Alguire,  
 B. Austin,  S. A. Baeppler,  G. J. O. Beran,  Y. A. Bernard,  E. Berquist,  
 K. Brandhorst,  K. B. Bravaya,  S. T. Brown,  D. Casanova,  C.-M. Chang,  
 Y. Chen,  S. H. Chien,  K. D. Closser,  M. P. Coons,  D. L. Crittenden,  
 S. Dasgupta,  M. Diedenhofen,  R. A. DiStasio Jr.,  H. Do,  A. D. Dutoi,  
 R. G. Edgar,  P.-T. Fang,  S. Fatehi,  Q. Feng,  L. Fusti-Molnar,  
 A. Ghysels,  A. Golubeva-Zadorozhnaya,  J. Gomes,  A. Gunina,  
 M. W. D. Hanson-Heine,  P. H. P. Harbach,  A. W. Hauser,  J. E. Herr,  
 E. G. Hohenstein,  Z. C. Holden,  K. Hui,  T.-C. Jagau,  H. Ji,  B. Kaduk,  
 K. Khistyaev,  Jaehoon Kim,  Jihan Kim,  R. A. King,  P. Klunzinger,  
 K. Koh,  D. Kosenkov,  T. Kowalczyk,  C. M. Krauter,  A. Kunitsa,  
 K. U. Lao,  A. Laurent,  K. V. Lawler,  J. Lee,  D. Lefrancois,  S. Lehtola,  
 S. V. Levchenko,  C. Y. Lin,  Y.-S. Lin,  F. Liu,  E. Livshits,  
 R. C. Lochan,  A. Luenser,  P. Manohar,  S. F. Manzer,  S.-P. Mao,  Y. Mao,  
 N. Mardirossian,  A. V. Marenich,  L. A. Martinez-Martinez,  S. A. Maurer,  
 N. J. Mayhall,  J.-M. Mewes,  A. F. Morrison,  K. Nanda,  T. S. Nguyen-Beck,  
 C. M. Oana,  R. Olivares-Amaya,  D. P. O'Neill,  J. A. Parkhill,  
 T. M. Perrine,  R. Peverati,  P. A. Pieniazek,  F. Plasser,  A. Prociuk,  
 D. R. Rehn,  E. Rosta,  N. J. Russ,  N. Sergueev,  S. M. Sharada,  
 S. Sharma,  D. W. Small,  A. Sodt,  T. Stauch,  T. Stein,  D. Stuck,  
 Y.-C. Su,  A. J. W. Thom,  T. Tsuchimochi,  L. Vogt,  O. Vydrov,  T. Wang,  
 M. A. Watson,  J. Wenzel,  A. White,  C. F. Williams,  V. Vanovschi,  
 K. Yao,  S. Yeganeh,  S. R. Yost,  Z.-Q. You,  I. Y. Zhang,  X. Zhang,  
 Y. Zhao,  B. R. Brooks,  G. K. L. Chan,  D. M. Chipman,  C. J. Cramer,  
 W. A. Goddard III,  M. S. Gordon,  W. J. Hehre,  A. Klamt,  
 H. F. Schaefer III,  M. W. Schmidt,  C. D. Sherrill,  D. G. Truhlar,  
 A. Warshel,  X. Xu,  A. Aspuru-Guzik,  R. Baer,  A. T. Bell,  N. A. Besley,  
 J.-D. Chai,  A. Dreuw,  B. D. Dunietz,  T. R. Furlani,  S. R. Gwaltney,  
 C.-P. Hsu,  Y. Jung,  J. Kong,  D. S. Lambrecht,  W. Liang,  C. Ochsenfeld,  
 V. A. Rassolov,  L. V. Slipchenko,  J. E. Subotnik,  T. Van Voorhis,  
 J. M. Herbert,  A. I. Krylov,  P. M. W. Gill,  M. Head-Gordon

 Contributors to earlier versions of Q-Chem not listed above: 
 R. D. Adamson,  J. Baker,  E. F. C. Byrd,  A. K. Chakraborty,  C.-L. Cheng,  
 H. Dachsel,  R. J. Doerksen,  G. Hawkins,  A. Heyden,  S. Hirata,  
 G. Kedziora,  F. J. Keil,  C. Kelley,  P. P. Korambath,  W. Kurlancheek,  
 A. M. Lee,  M. S. Lee,  D. Liotard,  I. Lotan,  P. E. Maslen,  N. Nair,  
 D. Neuhauser,  R. Olson,  B. Peters,  J. Ritchie,  N. E. Schultz,  
 N. Shenvi,  A. C. Simmonett,  K. S. Thanthiriwatte,  Q. Wu,  W. Zhang

 Please cite Q-Chem as follows:
 Y. Shao et al., Mol. Phys. 113, 184-215 (2015)
 DOI: 10.1080/00268976.2014.952696

 Q-Chem 4.4.2 for Intel X86 Linux

 Parts of Q-Chem use Armadillo 5.200.1 (Boston Tea Smuggler).
 http://arma.sourceforge.net/

 Q-Chem begins on Fri Oct 12 10:13:17 2018  

Host: 
0

     Scratch files written to /tmpu/cab_g/afmv_a/scratch_qchem/qchem29515//
 Dec716 11556_ 22328  22283 4050   
Processing $rem in /tmpu/appuserlic/qchem4.4/serial-multicore/config/preferences.
 MEM_TOTAL  2000 
FILE_GEOM_ORG=        593

Checking the input file for inconsistencies... 	...done.

--------------------------------------------------------------
User input:
--------------------------------------------------------------
$comment
SP
$end

$rem
MEM_STATIC 5000
MEM_TOTAL 20000
JOBTYPE SP
EXCHANGE B3LYP
BASIS 6-31g(d,p)
$end

$molecule
0 1
O          14.935000     16.356000     -1.314000
C          15.946000     16.691000     -0.286000
H          16.842000     17.030000     -0.821000
H          16.273000     15.791000      0.249000
H          15.578000     17.375000      0.489000
O          13.258000     16.045000      0.272000
C          13.716000     15.905000     -0.818000
C          13.029000     15.122000     -1.852000
H          12.628000     15.732000     -2.671000
H          12.074000     14.746000     -1.463000
C          13.886000     13.966000     -2.362000
H          13.391000     13.437000     -3.187000
H          14.849000     14.295000     -2.773000
C          14.028000     12.921000     -1.244000
H          14.310000     13.435000     -0.317000
H          13.030000     12.481000     -1.127000
C          15.103000     11.876000     -1.647000
C          16.598000     12.275000     -1.364000
C          17.359000     13.044000     -2.324000
H          17.035000     13.342000     -3.316000
C          18.665000     13.490000     -2.029000
H          19.202000     13.920000     -2.870000
C          19.163000     13.215000     -0.760000
H          20.129000     13.640000     -0.503000
C          18.502000     12.387000      0.125000
H          18.932000     12.191000      1.103000
C          17.233000     11.939000     -0.147000
H          16.726000     11.337000      0.602000
C          16.722000      8.649000     -5.750000
C          17.423000      7.372000     -3.796000
C          14.231000      4.201000     -4.185000
C          11.882000      9.907000     -5.546000
C          12.099000      5.618000     -1.781000
C          17.264000      8.647000     -4.393000
C          10.532000      7.789000     -4.128000
C          15.602000      5.338000     -5.900000
C          14.970000      8.248000     -0.697000
C          11.520000     10.037000     -4.158000
C          14.732000     10.409000     -1.635000
C          13.617000      8.554000     -0.644000
C          11.368000      8.955000     -2.194000
C          10.678000      6.545000     -3.477000
C          16.700000      8.888000     -2.197000
C          12.081000      4.718000     -4.074000
C          14.855000     11.082000     -2.912000
C          13.606000     11.158000     -3.755000
C          12.546000      4.775000     -2.773000
C          12.885000      7.054000     -7.278000
C          13.166000      5.121000     -6.224000
C          14.412000      5.567000     -6.691000
C          16.537000      6.303000     -5.832000
C          14.042000     10.894000     -5.075000
C          15.641000      9.283000     -1.367000
C          17.133000      6.196000     -4.519000
C          10.880000      9.001000     -3.514000
C          17.024000      7.544000     -2.417000
C          12.611000      7.527000     -0.695000
C          13.550000      9.391000     -7.039000
C          15.489000      4.609000     -4.684000
C          13.412000      9.770000     -1.205000
C          15.257000      7.741000     -7.236000
C          11.473000      7.731000     -1.499000
C          15.361000      6.881000     -0.850000
C          11.178000      6.361000     -5.678000
C          10.812000      7.702000     -5.544000
C          14.349000      5.815000     -0.938000
C          13.148000     10.284000     -5.993000
C          12.392000     10.604000     -3.294000
C          12.561000      8.369000     -7.021000
C          15.919000     10.559000     -3.837000
C          16.048000      5.346000     -2.419000
C          12.303000      9.899000     -2.063000
C          13.023000      6.211000     -0.887000
C          14.894000      9.075000     -7.052000
C          13.884000      4.325000     -2.810000
C          16.419000      7.521000     -6.488000
C          13.096000      4.471000     -4.951000
C          16.417000      6.497000     -1.717000
C          14.807000      4.888000     -1.930000
C          16.818000      9.566000     -3.451000
C          15.403000     10.603000     -5.119000
C          12.176000      6.037000     -6.617000
C          16.415000      5.105000     -3.788000
C          11.133000      6.513000     -2.151000
C          11.525000      8.723000     -6.215000
C          11.081000      5.658000     -4.464000
C          15.828000      9.671000     -6.081000
C          14.260000      6.802000     -7.341000
O          16.382000      0.203000     -7.871000
C          15.808000      1.414000     -7.462000
H          16.523000      2.194000     -7.174000
H          15.080000      1.224000     -6.663000
H          15.230000      1.801000     -8.310000
O          17.043000      0.909000     -9.935000
C          17.015000      0.046000     -9.041000
C          17.694000     -1.320000     -9.090000
H          17.834000     -1.724000    -10.100000
H          16.968000     -1.927000     -8.535000
C          19.052000     -1.242000     -8.320000
H          18.877000     -0.603000     -7.445000
H          19.235000     -2.257000     -7.948000
C          20.245000     -0.739000     -9.131000
H          20.426000     -1.498000     -9.901000
H          19.842000      0.122000     -9.678000
C          21.416000     -0.348000     -8.206000
C          22.261000     -1.506000     -7.683000
C          21.913000     -2.195000     -6.533000
H          21.031000     -1.884000     -5.982000
C          22.725000     -3.269000     -6.036000
H          22.343000     -3.920000     -5.255000
C          23.836000     -3.659000     -6.721000
H          24.298000     -4.610000     -6.472000
C          24.153000     -3.071000     -7.997000
H          24.922000     -3.524000     -8.614000
C          23.366000     -1.964000     -8.430000
H          23.568000     -1.338000     -9.294000
C          23.300000      2.994000     -4.308000
C          25.225000      2.769000     -5.764000
C          25.310000      6.944000     -7.472000
C          19.344000      4.663000     -7.005000
C          23.660000      5.988000    -10.482000
C          24.022000      2.261000     -5.227000
C          20.334000      6.178000     -9.073000
C          24.854000      6.133000     -5.190000
C          24.188000      2.058000     -9.509000
C          19.428000      4.075000     -8.269000
C          22.223000      0.963000     -8.644000
C          23.016000      2.545000    -10.185000
C          20.734000      4.023000    -10.149000
C          21.492000      6.704000     -9.723000
C          24.222000      1.406000     -7.257000
C          23.487000      7.692000     -8.693000
C          21.345000      0.986000     -7.398000
C          20.195000      1.992000     -7.346000
C          24.305000      6.832000     -9.523000
C          21.484000      6.912000     -5.297000
C          23.345000      7.681000     -6.276000
C          23.725000      6.897000     -5.154000
C          24.864000      4.855000     -4.677000
C          20.164000      2.625000     -6.067000
C          23.701000      1.145000     -8.510000
C          25.586000      4.088000     -5.507000
C          20.001000      4.852000     -9.320000
C          25.364000      2.219000     -7.070000
C          23.056000      3.837000    -10.762000
C          20.330000      4.728000     -4.942000
C          25.665000      6.152000     -6.326000
C          21.856000      1.975000     -9.706000
C          22.541000      5.092000     -3.986000
C          21.883000      4.598000    -10.799000
C          25.292000      2.939000     -9.322000
C          21.287000      7.605000     -7.661000
C          20.216000      6.758000     -7.853000
C          25.273000      4.231000     -9.836000
C          19.709000      3.887000     -5.874000
C          19.949000      2.823000     -8.414000
C          20.306000      6.068000     -5.462000
C          21.992000      1.207000     -6.079000
C          26.371000      4.277000     -7.849000
C          20.754000      2.786000     -9.594000
C          24.199000      4.696000    -10.612000
C          21.412000      4.273000     -4.165000
C          25.361000      6.338000     -8.723000
C          23.685000      4.302000     -4.082000
C          24.144000      7.764000     -7.434000
C          25.897000      2.963000     -8.098000
C          25.978000      5.067000     -8.931000
C          23.423000      1.394000     -6.095000
C          21.234000      2.089000     -5.271000
C          21.936000      7.672000     -6.349000
C          26.175000      4.817000     -6.527000
C          22.280000      5.905000    -10.508000
C          19.735000      5.994000     -6.723000
C          22.102000      7.571000     -8.770000
C          21.928000      2.975000     -4.381000
C          22.556000      6.381000     -4.592000
$end

--------------------------------------------------------------
 ----------------------------------------------------------------
             Standard Nuclear Orientation (Angstroms)
    I     Atom           X                Y                Z
 ----------------------------------------------------------------
    1      O     -10.2315229109    -5.2382205444     0.6198012269
    2      C     -10.1603408132    -6.3186870372    -0.3894833053
    3      H      -9.5538169056    -7.1217112780     0.0478298756
    4      H      -9.5901477575    -5.9954861454    -1.2690144661
    5      H     -11.1400126234    -6.6295908223    -0.7735236426
    6      O     -11.7981571705    -4.0335648706    -0.6126385502
    7      C     -10.9717063950    -4.1233272676     0.2396441657
    8      C     -10.5426498224    -2.9618621893     1.0277579451
    9      H     -10.8707621714    -2.9955852377     2.0741168904
   10      H     -11.1085990849    -2.0727718018     0.7212588177
   11      C      -9.0428687098    -2.7049204706     0.9031683493
   12      H      -8.7240859723    -1.8822560970     1.5566910304
   13      H      -8.4336158662    -3.5643437386     1.2109566189
   14      C      -8.7374086218    -2.2239965386    -0.5242486558
   15      H      -9.2312358075    -2.8979913352    -1.2348221740
   16      H      -9.1855323871    -1.2254935605    -0.5982073841
   17      C      -7.2012124957    -2.2123157061    -0.7479091580
   18      C      -6.5487127765    -3.5861254614    -1.1494136697
   19      C      -6.1335166639    -4.5371257925    -0.1417964019
   20      H      -6.1473732148    -4.3874504673     0.9330288364
   21      C      -5.6429107402    -5.8108153495    -0.5004016724
   22      H      -5.2154572171    -6.3830900049     0.3183383378
   23      C      -5.6346763266    -6.1351565128    -1.8527052642
   24      H      -5.3462108061    -7.1480608319    -2.1184918025
   25      C      -5.9159507054    -5.2047683461    -2.8330075558
   26      H      -5.8882397647    -5.4985753420    -3.8783350417
   27      C      -6.3893256109    -3.9588868349    -2.5032433081
   28      H      -6.6532909838    -3.2770972215    -3.3069467391
   29      C      -2.4826463773    -0.6055874658     1.4932640054
   30      C      -1.9838300796    -0.4670923587    -0.8883840388
   31      C      -2.0198998294     4.0450304583    -1.0751262603
   32      C      -6.6216308559     1.9337808816     2.7057803486
   33      C      -5.2911392817     4.2720093706    -2.3321075724
   34      C      -2.6490257036    -1.1614317863     0.1521555045
   35      C      -6.7772332400     4.1791405225     0.9020908018
   36      C      -1.1231603399     2.5019392718     0.6361197414
   37      C      -5.4097761053     0.2742198565    -2.9136583483
   38      C      -7.4942609977     1.9244487620     1.5599542068
   39      C      -6.5449931678    -0.9343585705    -1.2233833981
   40      C      -6.5368301393     1.0162305380    -2.5877391050
   41      C      -7.6980684372     2.5322775170    -0.5941420613
   42      C      -6.1613831614     4.8543795933    -0.1737502078
   43      C      -4.0456927773    -1.2068613480    -1.6494688293
   44      C      -3.8405234813     5.1994331351    -0.5703550470
   45      C      -6.3771395759    -1.3255933248     0.1613720094
   46      C      -6.9378471110    -0.3843017482     1.1986777637
   47      C      -4.0736525144     4.6645118958    -1.8239838285
   48      C      -3.4865594365     3.4176531549     3.0447379749
   49      C      -2.5096840585     4.4230488397     1.3239067766
   50      C      -1.7595373514     3.2887635081     1.6706021823
   51      C      -1.1169731958     1.1610472365     0.7458661260
   52      C      -5.9585942873    -0.3433413631     2.2192551269
   53      C      -5.3351233326    -0.8339516246    -2.0553175465
   54      C      -1.1641818003     0.6451743940    -0.6040525967
   55      C      -7.5370647267     3.0146046142     0.7189072053
   56      C      -2.9040756904    -0.4780993034    -2.0034862148
   57      C      -6.5592296203     2.4483174319    -2.7218710979
   58      C      -4.5835409763     1.2964887460     3.5528797386
   59      C      -1.2253983168     2.9326089784    -0.7155225929
   60      C      -7.2106636542     0.3908434859    -1.5926303525
   61      C      -2.3244981733     1.2522841722     2.7979429400
   62      C      -7.1397404517     3.2171863712    -1.6947762976
   63      C      -4.2348946383     0.9628278788    -3.3500658759
   64      C      -4.8415111913     4.9064080861     1.6656757947
   65      C      -5.9758191355     4.2204706326     2.1050256526
   66      C      -4.2225332626     2.4308871079    -3.4636145276
   67      C      -5.8229228797     0.8305440665     3.0051598713
   68      C      -7.5968194510     0.8028263407     0.8117470779
   69      C      -4.6247205795     2.7042764140     3.3544682417
   70      C      -4.9673197873    -1.6013308139     0.6059245943
   71      C      -2.1974065391     1.7375067214    -2.6162607682
   72      C      -7.7036409151     1.1979269612    -0.5494258261
   73      C      -5.3864785268     3.0916460204    -3.1081963494
   74      C      -3.4721184638     0.5627130339     3.1886350362
   75      C      -2.8735243398     4.0308548927    -2.2142198686
   76      C      -1.6957335974     0.4845701063     1.8113233471
   77      C      -2.6543833679     4.7612296994    -0.0590700185
   78      C      -2.9397595196     0.5891299279    -2.9059309124
   79      C      -2.9453735248     2.8737583623    -2.9883408630
   80      C      -3.8933925834    -1.6009307979    -0.2828533312
   81      C      -4.8389959195    -1.1025648159     1.8890775330
   82      C      -3.5945827961     4.5414824641     2.2085384547
   83      C      -1.2598623623     1.8177545461    -1.5292914939
   84      C      -6.3557943249     4.3850250184    -1.4807450748
   85      C      -5.8636358350     3.0923011004     2.9510158497
   86      C      -4.9482953583     5.3079634189     0.3222605735
   87      C      -3.5928843142    -0.6366103486     2.3416096332
   88      C      -2.3742473933     2.6238911116     2.7434047087
   89      O       3.3739119305     5.7550454868     0.4013710482
   90      C       2.0712986466     5.2719001083     0.5831598707
   91      H       1.9569178081     4.1874011163     0.4676264983
   92      H       1.3818720090     5.8189014903    -0.0725575985
   93      H       1.7734369327     5.5219897155     1.6086795378
   94      O       4.1954570434     5.0589318125     2.4103365481
   95      C       4.3609125715     5.5629636524     1.2863412756
   96      C       5.6891695636     6.0331761944     0.6997992667
   97      H       6.4329754297     6.3418918412     1.4443551632
   98      H       5.3564774625     6.8985723718     0.1133221382
   99      C       6.2566723064     4.9171023285    -0.2358650763
  100      H       5.3962408897     4.4876248697    -0.7648054222
  101      H       6.8650910459     5.4429057522    -0.9811538774
  102      C       7.0710054026     3.8246709271     0.4551010890
  103      H       7.9687473758     4.3196623818     0.8434112863
  104      H       6.4783384711     3.5839691428     1.3460262033
  105      C       7.2562556361     2.6048969625    -0.4709555110
  106      C       8.3422493285     2.7405155089    -1.5343196584
  107      C       8.0820545748     3.3187243011    -2.7657002993
  108      H       7.0745723815     3.6595796015    -2.9825949608
  109      C       9.1037238522     3.4228979159    -3.7682813412
  110      H       8.9422385132     4.0458053946    -4.6432640600
  111      C      10.3681307548     2.9911828376    -3.5026814994
  112      H      11.1740797891     3.2901840807    -4.1666772905
  113      C      10.7197683656     2.5209453567    -2.1875249679
  114      H      11.7650398747     2.3670592850    -1.9405724437
  115      C       9.6692953550     2.3680343414    -1.2359832319
  116      H       9.7571663361     1.9007930405    -0.2596942084
  117      C       4.9183222197    -1.5427033274    -3.1624798329
  118      C       6.9348882474    -2.5687248928    -2.2924641988
  119      C       5.0694469026    -5.3037419322     0.7726498910
  120      C       2.2649600073     0.4528620904     0.6698423917
  121      C       5.7325181182    -3.0876641177     3.4829767500
  122      C       6.2248252055    -1.4309220227    -2.7338904162
  123      C       2.8078094134    -1.0366667118     2.9145177513
  124      C       4.3660890757    -4.7081561792    -1.5129017663
  125      C       8.1501299712    -0.8642178810     1.0577236168
  126      C       3.1853097696     0.9610472413     1.5891900775
  127      C       7.1599867094     1.1795276877     0.2507568446
  128      C       7.3202289480    -0.2834766585     2.0783768018
  129      C       4.8422947192     0.3085816366     3.0284362384
  130      C       3.5207296439    -2.1406296742     3.4741162883
  131      C       7.6914413617    -0.7228646699    -1.2373554732
  132      C       3.8512516722    -4.3723016739     2.5110668219
  133      C       6.0605080556     1.6287237456    -0.7049097246
  134      C       4.6360499720     1.7418974037    -0.1614477745
  135      C       5.2666461233    -4.2520289807     2.7935858957
  136      C       1.6425526237    -2.8412762050    -0.4773833662
  137      C       2.8098861935    -4.5709050853     0.3343057820
  138      C       3.1126115159    -4.4402493758    -1.0474418305
  139      C       4.9653715781    -3.8952721245    -2.4491885792
  140      C       3.7176918788     1.1630072651    -1.0882679406
  141      C       7.9945888087    -0.0129868132    -0.0911678559
  142      C       6.2579559855    -3.7712483767    -2.1140518016
  143      C       3.5041096027     0.1495535930     2.7190147211
  144      C       7.8853885780    -2.1205754552    -1.3316477735
  145      C       6.7713000518    -1.1334288136     3.0683522565
  146      C       2.0793936296    -0.5543319506    -1.3755219483
  147      C       5.3507684327    -5.1528432704    -0.6290251036
  148      C       6.7006698516     0.8741044402     1.6587418104
  149      C       2.9732555208    -2.4977835504    -2.5412662592
  150      C       5.5186569101    -0.8229288186     3.6076980759
  151      C       8.2760742589    -2.2820446154     0.9956640684
  152      C       2.0095234379    -2.8810620191     1.9662417095
  153      C       1.8867490156    -1.5095800731     2.0388895789
  154      C       7.6623886414    -3.0981078131     1.9397254119
  155      C       2.5490118455     0.5874841746    -0.7142650635
  156      C       4.3735439565     1.4766839487     1.1623548600
  157      C       1.4348429963    -1.3993279659    -0.4074763836
  158      C       5.8415290231     0.8487009895    -1.9502304396
  159      C       7.5943916626    -4.1620118005    -0.0651121667
  160      C       5.4063111658     1.0806328013     2.0669704579
  161      C       6.9518986453    -2.5590092932     3.0243699395
  162      C       2.7886879437    -1.1061639038    -2.4589706417
  163      C       5.9735276389    -4.7613100292     1.6799776447
  164      C       4.2766872748    -2.7507108987    -2.9645219963
  165      C       3.7553164745    -5.0486038822     1.2639398192
  166      C       8.1885677483    -2.8837333147    -0.2270747916
  167      C       7.2633790959    -4.2926741301     1.2849363644
  168      C       6.7002916715    -0.2948492549    -2.1446669391
  169      C       4.4617396518     0.6733834013    -2.2163075602
  170      C       1.8904041499    -3.5549538175     0.6705895805
  171      C       6.6052196554    -4.5647955458    -1.0331018333
  172      C       4.8601631494    -2.0470216236     3.7437927927
  173      C       1.5910278383    -0.7824497692     0.8240696308
  174      C       3.0192274926    -3.2953109790     2.8053826519
  175      C       4.0301050351    -0.5460973911    -2.8370250117
  176      C       2.4206912629    -3.3242228559    -1.5211423377
 ----------------------------------------------------------------
 Molecular Point Group                 C1    NOp =  1
 Largest Abelian Subgroup              C1    NOp =  1
 Nuclear Repulsion Energy = 34355.7761178417 hartrees
 There are      462 alpha and      462 beta electrons
 Requested basis set is 6-31G(d,p)
 There are 676 shells and 2360 basis functions

 Total QAlloc Memory Limit  20000 MB
 Mega-Array Size      4888 MB
 MEM_STATIC part      5000 MB
 A cutoff of  1.0D-08 yielded  37559 shell pairs
 There are    526316 function pairs
 
 -------------------------------------------------------
 OpenMP Integral Computing Module                       
 Release: version 1.0, May 2013, Q-Chem Inc. Pittsburgh 
 -------------------------------------------------------
 Integral Job Info:
 Integral job number is                      11
 Integral operator is                         1
 short-range coefficients                     0
 long-range coefficients              100000000
 Omega coefficients                           0
 if combine SR and LR in K                    0
 Integral screening is                        0
 Integral computing path is                   2
 max size of driver memory is            800000
 size of driver memory is                593474
 size of scratch memory is              2260544
 max col of scratch BK array               1296
 max len of scratch array in speh3          155
 max len of scratch index in speh4           18
 max int batch size is                      520
 min int batch size is                       52
 fixed nKL is                                52
 max L of basis functions is                  2
 order of int derivative is                   0
 number of shells is                        676
 number of basis is                        2360
 number of cartesian basis is              2360
 number of contracted shell pairs         37559
 number of primitive shell pairs         113778
 maxK2 (contraction) of shell pair           36
 max number of K2 of shell pair               1
 max number of CS2 of shell pair           7148
 max number of PS2 of shell pair          34290
 mem total for path MDJ                 1493016
 -------------------------------------------------------
 Smallest overlap matrix eigenvalue = 2.49E-04

 Scale SEOQF with 1.000000e-02/1.000000e-02/1.000000e-01

 Standard Electronic Orientation quadrupole field applied
 Nucleus-field energy     =    -0.0000001980 hartrees
 Guess from superposition of atomic densities
 Warning:  Energy on first SCF cycle will be non-variational
 A restricted hybrid HF-DFT SCF calculation will be
 performed using Pulay DIIS extrapolation
 Exchange:     0.2000 Hartree-Fock + 0.0800 Slater + 0.7200 B88
 Correlation:  0.1900 VWN1RPA + 0.8100 LYP
 Using SG-1 standard quadrature grid
 SCF converges when DIIS error is below 1.0E-05
 using 16 threads for integral computing 
 -------------------------------------------------------
 OpenMP BLAS3 based DFT computing Module                
 Release: version 1.0, May 2013, Q-Chem Inc. Pittsburgh 
 -------------------------------------------------------
 ---------------------------------------
  Cycle       Energy         DIIS Error
 ---------------------------------------
    1   -5858.4370899920      1.83E-02
    2   -5803.1197296531      1.30E-03
    3   -5802.3587881697      1.78E-03
    4   -5803.9773927916      6.47E-04
    5   -5804.2106892060      2.85E-04
    6   -5804.2631762948      1.19E-04
    7   -5804.2723310964      4.22E-05
    8   -5804.2732202862      2.27E-05
    9   -5804.2735708218      7.74E-06 Convergence criterion met
 ---------------------------------------
 SCF time:  CPU 8113.79 s  wall 837.45 s
 SCF   energy in the final basis set = -5804.2735708218
 Total energy in the final basis set = -5804.2735708218
 
 --------------------------------------------------------------
 
                    Orbital Energies (a.u.)
 --------------------------------------------------------------
 
 Alpha MOs
 -- Occupied --
-19.195 -19.192 -19.144 -19.130 -10.317 -10.315 -10.247 -10.246
-10.244 -10.243 -10.242 -10.238 -10.237 -10.235 -10.231 -10.228
-10.227 -10.225 -10.224 -10.224 -10.224 -10.223 -10.223 -10.223
-10.223 -10.223 -10.222 -10.222 -10.221 -10.221 -10.221 -10.221
-10.221 -10.220 -10.220 -10.220 -10.220 -10.220 -10.220 -10.220
-10.219 -10.219 -10.219 -10.219 -10.218 -10.218 -10.218 -10.218
-10.217 -10.217 -10.217 -10.217 -10.217 -10.217 -10.217 -10.217
-10.217 -10.217 -10.216 -10.216 -10.216 -10.216 -10.216 -10.216
-10.216 -10.216 -10.216 -10.216 -10.216 -10.216 -10.215 -10.215
-10.215 -10.215 -10.215 -10.215 -10.215 -10.214 -10.214 -10.214
-10.214 -10.214 -10.214 -10.214 -10.214 -10.214 -10.213 -10.213
-10.213 -10.213 -10.213 -10.213 -10.213 -10.213 -10.213 -10.213
-10.213 -10.213 -10.213 -10.213 -10.212 -10.212 -10.212 -10.212
-10.212 -10.212 -10.212 -10.211 -10.211 -10.211 -10.210 -10.210
-10.209 -10.209 -10.209 -10.208 -10.208 -10.208 -10.208 -10.207
-10.207 -10.207 -10.207 -10.207 -10.207 -10.207 -10.207 -10.206
-10.205 -10.205 -10.205 -10.205 -10.204 -10.204 -10.203 -10.203
-10.202 -10.202 -10.202 -10.202 -10.200 -10.200 -10.199 -10.198
-10.198 -10.198 -10.195 -10.193  -1.103  -1.091  -1.021  -0.999
 -0.986  -0.981  -0.970  -0.966  -0.965  -0.961  -0.959  -0.958
 -0.937  -0.929  -0.928  -0.927  -0.926  -0.925  -0.924  -0.923
 -0.922  -0.916  -0.898  -0.895  -0.891  -0.890  -0.887  -0.881
 -0.877  -0.867  -0.860  -0.848  -0.845  -0.841  -0.841  -0.838
 -0.837  -0.836  -0.823  -0.818  -0.812  -0.805  -0.799  -0.798
 -0.797  -0.796  -0.795  -0.795  -0.792  -0.790  -0.786  -0.784
 -0.774  -0.769  -0.768  -0.766  -0.766  -0.765  -0.764  -0.762
 -0.758  -0.751  -0.743  -0.741  -0.732  -0.732  -0.721  -0.717
 -0.715  -0.715  -0.713  -0.712  -0.711  -0.711  -0.710  -0.708
 -0.706  -0.705  -0.705  -0.702  -0.702  -0.701  -0.675  -0.669
 -0.661  -0.658  -0.658  -0.655  -0.648  -0.644  -0.635  -0.630
 -0.629  -0.626  -0.626  -0.623  -0.621  -0.618  -0.618  -0.616
 -0.616  -0.614  -0.613  -0.612  -0.611  -0.611  -0.610  -0.608
 -0.608  -0.604  -0.604  -0.601  -0.571  -0.570  -0.566  -0.562
 -0.562  -0.561  -0.559  -0.559  -0.556  -0.555  -0.555  -0.552
 -0.537  -0.535  -0.533  -0.532  -0.531  -0.528  -0.526  -0.524
 -0.524  -0.521  -0.521  -0.517  -0.517  -0.514  -0.514  -0.513
 -0.511  -0.506  -0.505  -0.502  -0.492  -0.491  -0.489  -0.487
 -0.485  -0.484  -0.483  -0.481  -0.479  -0.479  -0.477  -0.474
 -0.474  -0.474  -0.472  -0.471  -0.469  -0.468  -0.466  -0.466
 -0.465  -0.463  -0.462  -0.462  -0.461  -0.460  -0.459  -0.458
 -0.456  -0.454  -0.452  -0.450  -0.449  -0.448  -0.446  -0.445
 -0.443  -0.441  -0.440  -0.438  -0.436  -0.436  -0.434  -0.433
 -0.430  -0.430  -0.428  -0.427  -0.427  -0.426  -0.425  -0.425
 -0.425  -0.423  -0.422  -0.421  -0.420  -0.419  -0.419  -0.418
 -0.417  -0.416  -0.416  -0.416  -0.415  -0.413  -0.413  -0.413
 -0.412  -0.411  -0.410  -0.407  -0.402  -0.402  -0.397  -0.395
 -0.394  -0.393  -0.392  -0.392  -0.391  -0.389  -0.387  -0.383
 -0.380  -0.376  -0.374  -0.373  -0.372  -0.370  -0.367  -0.365
 -0.364  -0.363  -0.362  -0.361  -0.361  -0.360  -0.360  -0.359
 -0.358  -0.357  -0.357  -0.357  -0.356  -0.354  -0.354  -0.353
 -0.351  -0.349  -0.349  -0.348  -0.347  -0.346  -0.345  -0.344
 -0.343  -0.342  -0.339  -0.338  -0.338  -0.337  -0.336  -0.335
 -0.334  -0.333  -0.331  -0.330  -0.328  -0.328  -0.326  -0.325
 -0.306  -0.302  -0.302  -0.296  -0.290  -0.284  -0.275  -0.274
 -0.272  -0.271  -0.269  -0.266  -0.266  -0.265  -0.263  -0.263
 -0.262  -0.261  -0.260  -0.259  -0.259  -0.257  -0.256  -0.253
 -0.251  -0.249  -0.249  -0.242  -0.222  -0.217  -0.215  -0.213
 -0.212  -0.210  -0.208  -0.206  -0.201  -0.199
 -- Virtual --
 -0.123  -0.121  -0.117  -0.116  -0.113  -0.108  -0.081  -0.076
 -0.072  -0.070  -0.061  -0.060  -0.055  -0.055  -0.027  -0.022
 -0.022  -0.020  -0.020  -0.019  -0.018  -0.017  -0.015  -0.014
 -0.012  -0.011  -0.010  -0.009  -0.008  -0.006   0.002   0.005
  0.006   0.012   0.033   0.040   0.040   0.041   0.043   0.048
  0.049   0.053   0.054   0.056   0.061   0.063   0.064   0.070
  0.073   0.075   0.077   0.080   0.084   0.085   0.087   0.090
  0.093   0.094   0.096   0.098   0.099   0.101   0.105   0.109
  0.109   0.110   0.113   0.116   0.117   0.117   0.119   0.120
  0.120   0.124   0.124   0.125   0.129   0.131   0.133   0.134
  0.139   0.141   0.143   0.145   0.151   0.152   0.155   0.156
  0.158   0.159   0.161   0.162   0.164   0.166   0.166   0.169
  0.170   0.171   0.172   0.175   0.175   0.179   0.181   0.182
  0.182   0.184   0.185   0.186   0.187   0.190   0.193   0.195
  0.196   0.198   0.198   0.200   0.201   0.202   0.203   0.204
  0.205   0.209   0.211   0.213   0.214   0.216   0.217   0.218
  0.219   0.220   0.220   0.223   0.224   0.224   0.227   0.228
  0.229   0.231   0.232   0.233   0.235   0.237   0.237   0.239
  0.240   0.241   0.244   0.247   0.248   0.250   0.253   0.255
  0.259   0.261   0.266   0.268   0.273   0.275   0.279   0.281
  0.285   0.286   0.288   0.289   0.294   0.295   0.300   0.301
  0.306   0.306   0.309   0.310   0.312   0.314   0.316   0.319
  0.319   0.322   0.322   0.324   0.325   0.327   0.328   0.330
  0.334   0.335   0.336   0.336   0.341   0.344   0.345   0.347
  0.349   0.351   0.353   0.357   0.364   0.378   0.385   0.389
  0.396   0.398   0.399   0.400   0.402   0.404   0.406   0.407
  0.409   0.410   0.412   0.414   0.415   0.418   0.421   0.424
  0.427   0.429   0.429   0.438   0.440   0.444   0.446   0.448
  0.450   0.451   0.454   0.455   0.457   0.458   0.460   0.460
  0.461   0.466   0.466   0.468   0.470   0.472   0.473   0.475
  0.476   0.478   0.479   0.481   0.481   0.482   0.482   0.485
  0.486   0.488   0.490   0.491   0.492   0.492   0.494   0.495
  0.496   0.497   0.498   0.499   0.499   0.501   0.503   0.503
  0.505   0.506   0.507   0.508   0.508   0.509   0.510   0.511
  0.512   0.513   0.515   0.515   0.516   0.517   0.518   0.518
  0.519   0.521   0.522   0.522   0.522   0.523   0.523   0.525
  0.525   0.526   0.527   0.529   0.529   0.530   0.530   0.531
  0.532   0.533   0.534   0.534   0.536   0.536   0.536   0.538
  0.540   0.541   0.541   0.541   0.543   0.543   0.545   0.546
  0.546   0.547   0.547   0.547   0.549   0.549   0.550   0.550
  0.552   0.552   0.553   0.554   0.554   0.555   0.555   0.557
  0.557   0.559   0.559   0.560   0.561   0.562   0.562   0.563
  0.564   0.564   0.565   0.566   0.567   0.568   0.569   0.569
  0.570   0.572   0.572   0.573   0.574   0.575   0.576   0.579
  0.580   0.580   0.581   0.582   0.583   0.583   0.584   0.584
  0.585   0.585   0.586   0.587   0.589   0.590   0.590   0.592
  0.593   0.594   0.594   0.594   0.595   0.596   0.597   0.598
  0.598   0.599   0.600   0.600   0.601   0.602   0.604   0.605
  0.606   0.609   0.609   0.611   0.612   0.614   0.615   0.616
  0.618   0.619   0.620   0.621   0.622   0.623   0.625   0.625
  0.626   0.627   0.628   0.630   0.630   0.631   0.632   0.633
  0.634   0.634   0.635   0.636   0.637   0.639   0.640   0.641
  0.641   0.643   0.644   0.644   0.646   0.646   0.647   0.648
  0.649   0.650   0.651   0.653   0.653   0.655   0.655   0.655
  0.656   0.657   0.658   0.659   0.660   0.661   0.661   0.662
  0.663   0.664   0.665   0.666   0.666   0.667   0.667   0.668
  0.668   0.669   0.670   0.671   0.672   0.674   0.675   0.677
  0.679   0.680   0.680   0.681   0.683   0.683   0.685   0.686
  0.687   0.689   0.689   0.691   0.693   0.693   0.695   0.696
  0.697   0.698   0.700   0.701   0.701   0.702   0.703   0.704
  0.705   0.706   0.709   0.710   0.712   0.712   0.715   0.715
  0.715   0.718   0.719   0.719   0.720   0.721   0.723   0.724
  0.725   0.726   0.726   0.728   0.730   0.730   0.731   0.732
  0.733   0.735   0.736   0.738   0.738   0.740   0.742   0.745
  0.746   0.746   0.749   0.749   0.751   0.753   0.754   0.756
  0.759   0.760   0.761   0.762   0.763   0.764   0.764   0.765
  0.766   0.768   0.771   0.772   0.774   0.774   0.777   0.778
  0.778   0.780   0.781   0.783   0.785   0.786   0.786   0.787
  0.788   0.789   0.789   0.791   0.792   0.793   0.794   0.795
  0.796   0.797   0.799   0.800   0.801   0.802   0.803   0.804
  0.805   0.805   0.806   0.807   0.808   0.809   0.810   0.811
  0.811   0.812   0.813   0.814   0.814   0.815   0.817   0.817
  0.818   0.819   0.820   0.820   0.821   0.821   0.823   0.823
  0.824   0.825   0.826   0.828   0.830   0.831   0.832   0.833
  0.835   0.837   0.837   0.838   0.839   0.841   0.844   0.846
  0.847   0.849   0.849   0.852   0.855   0.856   0.859   0.861
  0.863   0.864   0.867   0.876   0.877   0.880   0.881   0.887
  0.889   0.894   0.896   0.899   0.904   0.906   0.907   0.908
  0.910   0.911   0.913   0.917   0.917   0.920   0.923   0.924
  0.927   0.928   0.931   0.932   0.933   0.934   0.936   0.937
  0.940   0.942   0.942   0.946   0.947   0.947   0.949   0.950
  0.951   0.954   0.956   0.960   0.962   0.965   0.967   0.971
  0.972   0.973   0.977   0.978   0.981   0.983   0.988   0.990
  0.991   0.993   0.996   0.998   0.999   1.000   1.003   1.003
  1.006   1.010   1.010   1.011   1.012   1.015   1.017   1.017
  1.020   1.022   1.023   1.024   1.026   1.027   1.029   1.031
  1.032   1.033   1.035   1.037   1.039   1.041   1.044   1.046
  1.047   1.048   1.050   1.051   1.053   1.055   1.056   1.058
  1.060   1.061   1.062   1.064   1.066   1.066   1.069   1.069
  1.072   1.073   1.074   1.078   1.079   1.080   1.082   1.083
  1.084   1.086   1.087   1.088   1.090   1.090   1.092   1.093
  1.094   1.096   1.098   1.100   1.104   1.104   1.106   1.108
  1.109   1.111   1.113   1.116   1.118   1.120   1.121   1.125
  1.126   1.131   1.132   1.132   1.135   1.137   1.139   1.143
  1.144   1.148   1.149   1.151   1.151   1.153   1.155   1.158
  1.158   1.160   1.161   1.163   1.165   1.165   1.169   1.170
  1.172   1.173   1.175   1.178   1.181   1.181   1.184   1.185
  1.186   1.186   1.189   1.193   1.194   1.196   1.197   1.201
  1.202   1.205   1.208   1.210   1.211   1.214   1.216   1.217
  1.220   1.223   1.227   1.231   1.232   1.233   1.233   1.239
  1.241   1.244   1.245   1.247   1.255   1.256   1.258   1.262
  1.262   1.265   1.267   1.268   1.269   1.270   1.273   1.273
  1.275   1.278   1.280   1.282   1.285   1.287   1.290   1.290
  1.291   1.295   1.298   1.298   1.302   1.303   1.306   1.309
  1.311   1.313   1.315   1.316   1.320   1.321   1.327   1.329
  1.331   1.332   1.333   1.336   1.339   1.343   1.343   1.344
  1.346   1.348   1.349   1.352   1.354   1.355   1.361   1.363
  1.366   1.367   1.371   1.374   1.376   1.378   1.381   1.382
  1.387   1.389   1.391   1.392   1.395   1.401   1.401   1.403
  1.406   1.409   1.409   1.415   1.418   1.420   1.422   1.427
  1.430   1.432   1.435   1.437   1.442   1.442   1.446   1.448
  1.450   1.452   1.455   1.457   1.462   1.463   1.464   1.464
  1.466   1.468   1.469   1.471   1.474   1.475   1.477   1.479
  1.486   1.488   1.488   1.490   1.491   1.493   1.495   1.497
  1.500   1.502   1.504   1.507   1.509   1.511   1.514   1.519
  1.519   1.522   1.524   1.525   1.532   1.535   1.537   1.539
  1.540   1.545   1.546   1.550   1.552   1.554   1.557   1.558
  1.559   1.561   1.564   1.564   1.566   1.568   1.571   1.572
  1.574   1.576   1.582   1.582   1.584   1.584   1.587   1.589
  1.590   1.592   1.595   1.601   1.603   1.608   1.610   1.616
  1.619   1.629   1.631   1.631   1.637   1.640   1.643   1.644
  1.647   1.649   1.650   1.654   1.655   1.659   1.660   1.670
  1.673   1.673   1.677   1.681   1.685   1.696   1.698   1.700
  1.702   1.703   1.705   1.707   1.711   1.713   1.716   1.717
  1.719   1.721   1.721   1.723   1.727   1.729   1.730   1.732
  1.734   1.734   1.737   1.739   1.741   1.745   1.746   1.746
  1.752   1.752   1.753   1.754   1.756   1.756   1.758   1.759
  1.760   1.761   1.761   1.763   1.764   1.768   1.768   1.770
  1.771   1.772   1.773   1.773   1.775   1.776   1.777   1.779
  1.779   1.780   1.783   1.783   1.785   1.787   1.787   1.788
  1.790   1.791   1.791   1.792   1.794   1.796   1.797   1.799
  1.800   1.801   1.802   1.804   1.806   1.807   1.808   1.809
  1.810   1.813   1.815   1.815   1.817   1.821   1.822   1.823
  1.826   1.829   1.832   1.832   1.837   1.839   1.841   1.841
  1.842   1.843   1.846   1.847   1.852   1.853   1.854   1.855
  1.857   1.858   1.860   1.861   1.863   1.864   1.865   1.866
  1.869   1.871   1.871   1.875   1.876   1.877   1.878   1.882
  1.883   1.886   1.887   1.889   1.891   1.892   1.896   1.899
  1.903   1.905   1.906   1.910   1.912   1.913   1.916   1.917
  1.922   1.923   1.925   1.927   1.928   1.929   1.932   1.933
  1.935   1.936   1.941   1.942   1.944   1.945   1.948   1.951
  1.952   1.955   1.958   1.961   1.962   1.962   1.964   1.970
  1.971   1.972   1.974   1.976   1.978   1.979   1.982   1.983
  1.984   1.986   1.989   1.989   1.992   1.993   1.994   1.995
  1.996   1.997   1.998   1.998   2.000   2.002   2.004   2.005
  2.007   2.009   2.009   2.011   2.011   2.013   2.015   2.016
  2.018   2.020   2.021   2.023   2.024   2.025   2.027   2.028
  2.029   2.029   2.030   2.032   2.033   2.035   2.036   2.038
  2.039   2.040   2.041   2.043   2.043   2.043   2.045   2.047
  2.047   2.050   2.051   2.052   2.052   2.053   2.054   2.057
  2.058   2.058   2.060   2.061   2.064   2.065   2.066   2.067
  2.068   2.069   2.070   2.071   2.072   2.073   2.073   2.075
  2.076   2.077   2.079   2.079   2.081   2.082   2.084   2.087
  2.088   2.091   2.092   2.094   2.096   2.097   2.102   2.103
  2.105   2.106   2.107   2.109   2.110   2.112   2.115   2.116
  2.119   2.121   2.122   2.125   2.132   2.133   2.135   2.139
  2.145   2.148   2.151   2.156   2.157   2.161   2.164   2.167
  2.179   2.183   2.186   2.189   2.192   2.196   2.198   2.203
  2.205   2.208   2.211   2.215   2.219   2.221   2.222   2.225
  2.229   2.229   2.231   2.233   2.237   2.239   2.244   2.247
  2.250   2.251   2.256   2.257   2.258   2.260   2.263   2.265
  2.267   2.269   2.270   2.273   2.274   2.277   2.279   2.279
  2.282   2.282   2.286   2.287   2.288   2.292   2.292   2.298
  2.299   2.301   2.304   2.306   2.310   2.311   2.312   2.314
  2.316   2.319   2.320   2.321   2.326   2.329   2.336   2.339
  2.341   2.341   2.343   2.345   2.348   2.348   2.350   2.352
  2.354   2.358   2.359   2.362   2.362   2.364   2.367   2.369
  2.370   2.371   2.371   2.374   2.375   2.377   2.378   2.380
  2.383   2.384   2.386   2.387   2.387   2.390   2.391   2.392
  2.395   2.396   2.398   2.400   2.402   2.406   2.406   2.407
  2.409   2.411   2.414   2.416   2.417   2.418   2.419   2.424
  2.426   2.427   2.427   2.431   2.438   2.441   2.443   2.445
  2.446   2.448   2.449   2.453   2.454   2.456   2.457   2.459
  2.460   2.464   2.465   2.467   2.471   2.472   2.477   2.478
  2.478   2.480   2.482   2.484   2.486   2.489   2.490   2.492
  2.494   2.495   2.497   2.501   2.501   2.503   2.505   2.508
  2.510   2.513   2.514   2.517   2.518   2.518   2.520   2.520
  2.522   2.523   2.526   2.529   2.530   2.530   2.536   2.537
  2.540   2.544   2.548   2.550   2.553   2.561   2.564   2.567
  2.567   2.568   2.571   2.573   2.577   2.580   2.581   2.584
  2.586   2.589   2.591   2.596   2.598   2.599   2.601   2.603
  2.606   2.607   2.609   2.612   2.615   2.620   2.622   2.622
  2.624   2.625   2.626   2.629   2.631   2.632   2.633   2.635
  2.636   2.638   2.639   2.640   2.642   2.643   2.643   2.645
  2.649   2.649   2.650   2.653   2.654   2.655   2.657   2.658
  2.660   2.662   2.665   2.665   2.668   2.670   2.670   2.672
  2.673   2.676   2.678   2.679   2.679   2.682   2.684   2.686
  2.690   2.692   2.694   2.695   2.697   2.699   2.700   2.703
  2.705   2.705   2.711   2.715   2.716   2.721   2.723   2.724
  2.724   2.725   2.727   2.730   2.733   2.737   2.739   2.741
  2.746   2.747   2.749   2.749   2.752   2.755   2.757   2.758
  2.760   2.762   2.763   2.766   2.768   2.769   2.770   2.771
  2.773   2.775   2.777   2.780   2.784   2.787   2.789   2.790
  2.790   2.797   2.801   2.803   2.807   2.812   2.818   2.821
  2.821   2.824   2.825   2.834   2.836   2.838   2.840   2.842
  2.845   2.847   2.849   2.850   2.854   2.858   2.860   2.865
  2.866   2.867   2.869   2.873   2.873   2.874   2.877   2.878
  2.880   2.882   2.883   2.885   2.888   2.889   2.890   2.892
  2.894   2.896   2.897   2.898   2.900   2.902   2.903   2.905
  2.907   2.909   2.910   2.912   2.914   2.914   2.915   2.917
  2.920   2.921   2.924   2.926   2.927   2.929   2.930   2.932
  2.933   2.937   2.938   2.943   2.944   2.949   2.951   2.953
  2.957   2.958   2.963   2.966   2.968   2.971   2.974   2.977
  2.978   2.983   2.986   2.988   2.993   2.994   2.996   2.997
  3.000   3.003   3.004   3.007   3.010   3.012   3.015   3.015
  3.018   3.019   3.025   3.029   3.031   3.035   3.038   3.040
  3.042   3.046   3.052   3.053   3.057   3.057   3.059   3.062
  3.062   3.064   3.066   3.071   3.076   3.077   3.104   3.111
  3.114   3.116   3.122   3.129   3.130   3.139   3.152   3.157
  3.158   3.163   3.164   3.172   3.174   3.176   3.177   3.180
  3.188   3.194   3.200   3.201   3.211   3.225   3.229   3.237
  3.239   3.241   3.250   3.254   3.259   3.260   3.274   3.279
  3.283   3.292   3.309   3.314   3.316   3.320   3.320   3.323
  3.325   3.334   3.341   3.342   3.350   3.355   3.369   3.379
  3.395   3.399   3.409   3.422   3.423   3.424   3.433   3.436
  3.438   3.445   3.457   3.459   3.470   3.473   3.485   3.490
  3.492   3.506   3.513   3.513   3.519   3.521   3.529   3.536
  3.542   3.555   3.567   3.572   3.574   3.590   3.591   3.596
  3.606   3.610   3.681   3.686   3.835   3.853   4.017   4.031
  4.068   4.077   4.079   4.084   4.085   4.087   4.095   4.097
  4.100   4.103   4.109   4.111   4.114   4.116   4.121   4.123
  4.125   4.128   4.133   4.141   4.143   4.146   4.148   4.150
  4.154   4.156   4.160   4.167   4.169   4.174   4.178   4.184
  4.186   4.187   4.198   4.202   4.203   4.219   4.228   4.231
  4.242   4.244   4.245   4.252   4.253   4.255   4.261   4.266
  4.268   4.276   4.277   4.282   4.288   4.289   4.295   4.297
  4.305   4.307   4.318   4.364   4.379   4.382   4.387   4.391
  4.394   4.398   4.398   4.405   4.409   4.413   4.414   4.417
  4.419   4.420   4.425   4.428   4.437   4.446   4.464   4.470
  4.477   4.479   4.484   4.489   4.532   4.535   4.547   4.555
  4.557   4.558   4.616   4.624   4.630   4.630   4.634   4.640
  4.661   4.669   4.689   4.691   4.691   4.694   4.696   4.699
  4.701   4.705   4.707   4.709   4.744   4.745   4.802   4.808
  4.829   4.836   4.847   4.863   4.873   4.875   4.881   4.883
  4.907   4.908   4.953   4.960   4.964   4.969   4.974   4.976
  4.984   4.994   5.001   5.004   5.156   5.162   5.182   5.183
  5.186   5.200   5.202   5.218   5.303   5.315   5.324   5.338
  5.350   5.360
 --------------------------------------------------------------
 
          Ground-State Mulliken Net Atomic Charges

     Atom                 Charge (a.u.)
  ----------------------------------------
      1 O                    -0.481719
      2 C                    -0.099348
      3 H                     0.126683
      4 H                     0.128531
      5 H                     0.139383
      6 O                    -0.450508
      7 C                     0.614970
      8 C                    -0.261951
      9 H                     0.126238
     10 H                     0.124745
     11 C                    -0.189051
     12 H                     0.104077
     13 H                     0.122711
     14 C                    -0.192127
     15 H                     0.121689
     16 H                     0.114515
     17 C                     0.011038
     18 C                     0.072360
     19 C                    -0.112008
     20 H                     0.093670
     21 C                    -0.088420
     22 H                     0.099949
     23 C                    -0.090474
     24 H                     0.086996
     25 C                    -0.078092
     26 H                     0.093170
     27 C                    -0.106665
     28 H                     0.095484
     29 C                     0.013338
     30 C                     0.007926
     31 C                    -0.014146
     32 C                    -0.019155
     33 C                     0.006533
     34 C                    -0.013936
     35 C                    -0.020438
     36 C                     0.007902
     37 C                     0.013762
     38 C                    -0.001352
     39 C                    -0.089662
     40 C                     0.009449
     41 C                    -0.006005
     42 C                     0.037146
     43 C                    -0.003790
     44 C                    -0.016195
     45 C                    -0.083620
     46 C                     0.007753
     47 C                     0.039291
     48 C                    -0.006819
     49 C                     0.005736
     50 C                    -0.030644
     51 C                     0.029597
     52 C                     0.006804
     53 C                     0.041296
     54 C                    -0.037070
     55 C                    -0.003793
     56 C                     0.005618
     57 C                     0.001603
     58 C                    -0.029139
     59 C                    -0.001074
     60 C                     0.013480
     61 C                     0.016955
     62 C                    -0.021367
     63 C                    -0.031933
     64 C                     0.023536
     65 C                    -0.020233
     66 C                    -0.014375
     67 C                     0.004135
     68 C                     0.010899
     69 C                     0.022861
     70 C                     0.062367
     71 C                     0.037348
     72 C                     0.016375
     73 C                     0.014712
     74 C                    -0.016207
     75 C                    -0.027787
     76 C                    -0.000325
     77 C                     0.017151
     78 C                    -0.014273
     79 C                    -0.005629
     80 C                     0.004073
     81 C                    -0.005704
     82 C                    -0.023169
     83 C                    -0.031067
     84 C                    -0.009550
     85 C                     0.014886
     86 C                    -0.024034
     87 C                    -0.015377
     88 C                     0.026686
     89 O                    -0.436442
     90 C                    -0.092659
     91 H                     0.128157
     92 H                     0.124593
     93 H                     0.130220
     94 O                    -0.492422
     95 C                     0.580205
     96 C                    -0.238037
     97 H                     0.123512
     98 H                     0.125103
     99 C                    -0.200739
    100 H                     0.114531
    101 H                     0.108843
    102 C                    -0.182608
    103 H                     0.113377
    104 H                     0.128092
    105 C                     0.002722
    106 C                     0.113075
    107 C                    -0.121762
    108 H                     0.089348
    109 C                    -0.087066
    110 H                     0.094224
    111 C                    -0.086067
    112 H                     0.090677
    113 C                    -0.101053
    114 H                     0.098528
    115 C                    -0.105692
    116 H                     0.093755
    117 C                     0.010713
    118 C                    -0.015213
    119 C                    -0.012629
    120 C                    -0.013294
    121 C                    -0.019101
    122 C                    -0.008950
    123 C                     0.020981
    124 C                     0.008033
    125 C                    -0.026066
    126 C                    -0.016893
    127 C                    -0.104429
    128 C                     0.019523
    129 C                    -0.000621
    130 C                    -0.031787
    131 C                     0.020324
    132 C                    -0.010799
    133 C                    -0.069169
    134 C                     0.003774
    135 C                    -0.017926
    136 C                    -0.013740
    137 C                     0.005251
    138 C                    -0.002205
    139 C                     0.012760
    140 C                     0.007628
    141 C                    -0.015467
    142 C                     0.025239
    143 C                    -0.011780
    144 C                     0.005653
    145 C                    -0.012632
    146 C                     0.009217
    147 C                    -0.021394
    148 C                     0.037337
    149 C                    -0.004897
    150 C                    -0.034863
    151 C                     0.016800
    152 C                    -0.011144
    153 C                    -0.000675
    154 C                     0.008982
    155 C                     0.006264
    156 C                     0.039011
    157 C                    -0.013319
    158 C                     0.005209
    159 C                    -0.022603
    160 C                     0.031993
    161 C                    -0.006724
    162 C                    -0.014021
    163 C                     0.043955
    164 C                    -0.013365
    165 C                    -0.027116
    166 C                     0.004096
    167 C                    -0.014697
    168 C                     0.038452
    169 C                    -0.002975
    170 C                    -0.000843
    171 C                    -0.004453
    172 C                     0.048907
    173 C                     0.012720
    174 C                     0.022373
    175 C                    -0.007619
    176 C                     0.016605
  ----------------------------------------
  Sum of atomic charges =     0.000000

 -----------------------------------------------------------------
                    Cartesian Multipole Moments
 -----------------------------------------------------------------
    Charge (ESU x 10^10)
                 0.0000
    Dipole Moment (Debye)
         X       0.7076      Y      -0.1818      Z      -2.4336
       Tot       2.5409
    Quadrupole Moments (Debye-Ang)
        XX    -809.5891     XY      32.9078     YY    -781.2433
        XZ     -19.3336     YZ      -7.7569     ZZ    -811.8186
    Octopole Moments (Debye-Ang^2)
       XXX     698.6249    XXY     206.9189    XYY    -108.7762
       YYY     -95.7373    XXZ     -29.6522    XYZ     -81.9160
       YYZ     -92.3323    XZZ     -66.0824    YZZ     -31.1799
       ZZZ     -69.8379
    Hexadecapole Moments (Debye-Ang^3)
      XXXX -166508.9420   XXXY    2312.5207   XXYY  -34132.6266
      XYYY    3492.9854   YYYY  -46469.9952   XXXZ   -2466.1499
      XXYZ    -491.9496   XYYZ    -118.5270   YYYZ     201.9169
      XXZZ  -30036.6500   XYZZ     844.8296   YYZZ  -11251.6942
      XZZZ    -275.6656   YZZZ     -22.3326   ZZZZ  -19328.1759
 -----------------------------------------------------------------
Archival summary:
1\1\mn251\SP\ProcedureUnspecified\6-31G**\428\afmv_a\FriOct1210:27:302018FriOct1210:27:302018\0\\#,ProcedureUnspecified,6-31G**,\\0,1\C\C,1,1.34539\C,1,1.38845,2,123.111\C,3,1.38161,1,116.436,2,-134.086,0\C,4,1.3976,3,109.283,1,141.42,0\C,3,1.39934,1,117.454,2,-0.825399,0\C,6,1.37359,3,122.419,1,0.410772,0\C,6,1.3947,3,107.216,1,-141.395,0\C,8,1.38071,6,118.262,3,146.198,0\C,7,1.39932,6,125.921,3,-137.708,0\C,10,1.3785,7,114.276,6,3.32205,0\C,11,1.3595,10,122.55,7,141.48,0\C,7,1.40386,6,119.17,3,0.829679,0\C,13,1.4034,7,109.726,6,-144.811,0\C,14,1.40485,13,108.988,7,-2.52374,0\C,5,1.40524,4,121.086,3,-146.023,0\C,16,1.38265,5,120.051,4,-3.16476,0\C,16,1.39246,5,117.119,4,134.598,0\C,17,1.394,16,121.338,5,2.86737,0\C,19,1.38955,17,119.366,16,-3.72395,0\C,12,1.40601,11,107.931,10,-146.233,0\C,21,1.39452,12,107.797,11,-1.57181,0\C,15,1.40808,14,117.577,13,138.468,0\C,23,1.39649,15,118.08,14,-136.37,0\C,23,1.40621,15,120.635,14,8.25565,0\C,25,1.38685,23,108.343,15,-144.798,0\C,26,1.40226,25,124.34,23,143.236,0\C,27,1.36787,26,119.991,25,-4.27854,0\C,28,1.37642,27,115.794,26,1.09647,0\C,29,1.38278,28,126.45,27,2.52188,0\C,30,1.36395,29,111.234,28,-143.258,0\C,31,1.39567,30,106.697,29,-7.1116,0\C,26,1.41161,25,105.395,23,-0.214853,0\C,33,1.40251,26,122.276,25,142.929,0\C,34,1.37755,33,124.092,26,-139.32,0\C,35,1.35217,34,108.436,33,142.687,0\C,34,1.40807,33,117.915,26,1.12642,0\C,37,1.33511,34,108.155,33,-144.299,0\C,38,1.40808,37,123.133,34,148.282,0\C,39,1.35477,38,116.983,37,-9.49061,0\C,40,1.38818,39,109.24,38,-136.972,0\C,41,1.4037,40,108.76,39,2.55023,0\C,42,1.40229,41,115.838,40,142.997,0\C,43,1.3999,42,122.564,41,-3.85316,0\C,44,1.39809,43,122.67,42,7.22021,0\C,45,1.39777,44,118.674,43,-138.062,0\C,46,1.41031,45,109.001,44,140.774,0\C,47,1.39402,46,119.663,45,-143.831,0\C,37,1.41146,34,121.045,33,1.51335,0\C,49,1.40822,37,117.831,34,-139.866,0\C,50,1.39229,49,107.297,37,138.767,0\C,51,1.38481,50,123.967,49,-142.483,0\C,36,1.41182,35,120.692,34,-147.215,0\C,32,1.41352,31,118.305,30,146.199,0\C,54,1.38069,32,118.131,31,-141.605,0\C,20,1.4168,19,110.215,17,143.883,0\C,56,1.4106,20,120.744,19,-144.452,0\C,45,1.41925,44,115.232,43,-5.41197,0\C,42,1.47173,41,110.842,40,-7.11064,0\C,59,1.44872,42,117.613,41,140.494,0\C,59,1.51323,42,126.28,41,-146.091,0\C,61,1.55244,59,118.734,42,149.805,0\H,62,1.09684,61,110.904,59,-114.455,0\H,62,1.09695,61,112.81,59,8.63013,0\C,62,1.53692,61,109.441,59,125.679,0\H,65,1.09751,62,113.276,61,42.9014,0\H,65,1.09795,62,105.109,61,-71.1631,0\C,65,1.52672,62,108.887,61,169.531,0\H,68,1.09712,65,112.135,62,161.862,0\H,68,1.0976,65,110.329,62,53.8963,0\C,68,1.46772,65,112.119,62,-68.9477,0\O,71,1.19057,68,121.847,65,121.581,0\O,71,1.39118,68,109.385,65,-55.8578,0\C,73,1.48025,71,115.102,68,157.443,0\H,74,1.09688,73,110.895,71,-67.0432,0\H,74,1.09723,73,113.737,71,51.6454,0\H,74,1.09725,73,106.8,71,179.852,0\C,61,1.573,59,118.522,42,-0.645184,0\C,78,1.41323,61,121.444,59,59.8721,0\H,79,1.08649,78,121.045,61,-4.11544,0\C,79,1.37297,78,120.552,61,174.799,0\H,81,1.08619,79,119.039,78,-174.48,0\C,81,1.38048,79,120.748,78,-2.48102,0\H,83,1.0862,81,120.586,79,-174.458,0\C,83,1.39068,81,122.149,79,8.68767,0\H,85,1.08653,83,127.414,81,164.155,0\C,85,1.41123,83,117.364,81,-8.7092,0\H,87,1.08529,85,112.369,83,-177.275,0\C,57,3.31264,56,88.9227,20,-92.1293,0\C,89,1.38623,57,82.3263,56,126.754,0\C,90,1.41562,89,110.192,57,82.2498,0\C,91,1.3966,90,124.024,89,143.818,0\C,92,1.36381,91,120.378,90,-133.906,0\C,93,1.37539,92,122.713,91,-11.6399,0\C,91,1.41935,90,106.516,89,0.818768,0\C,95,1.35533,91,118.812,90,143.367,0\C,95,1.40055,91,108.42,90,1.11515,0\C,97,1.40765,95,120.934,91,143.218,0\C,98,1.40622,97,119.943,95,-135.909,0\C,99,1.39358,98,108.672,97,138.667,0\C,100,1.38209,99,108.608,98,0.482233,0\C,101,1.37407,100,107.453,99,-1.2727,0\C,101,1.37954,100,117.775,99,-138.501,0\C,103,1.36525,101,122.096,100,140.646,0\C,104,1.41024,103,105.657,101,-148.767,0\C,105,1.38187,104,122.135,103,151.756,0\C,103,1.41196,101,120.537,100,-9.12846,0\C,107,1.39145,103,119.462,101,8.92471,0\C,108,1.34107,107,121.117,103,-5.06288,0\C,109,1.37715,108,107.705,107,143.058,0\C,110,1.36368,109,121.07,108,-140.051,0\C,108,1.38519,107,118.242,103,141.339,0\C,110,1.39591,109,108.153,108,3.61311,0\C,111,1.39594,110,119.792,109,0.129315,0\C,114,1.38859,111,107.502,110,146.549,0\C,115,1.37427,114,110.256,111,-4.33729,0\C,116,1.41092,115,107,114,2.8987,0\C,117,1.40935,116,121.602,115,-148.545,0\C,105,1.41425,104,110.698,103,-3.76108,0\C,119,1.37638,105,121.647,104,145.206,0\C,120,1.36557,119,119.235,105,-1.44131,0\C,121,1.39062,120,108.725,119,-138.212,0\C,122,1.40424,121,121.491,120,144.892,0\C,123,1.40595,122,123.122,121,-139.052,0\C,124,1.38274,123,109.009,122,136.655,0\C,125,1.36951,124,121.901,123,-142.594,0\C,125,1.39662,124,110.108,123,6.43136,0\C,127,1.39872,125,105.382,124,-8.26901,0\C,128,1.41555,127,118.925,125,-140.264,0\C,129,1.37838,128,122.879,127,-2.85783,0\C,130,1.37283,129,117.361,128,10.7608,0\C,131,1.35595,130,121.156,129,-11.4625,0\C,132,1.38267,131,108.022,130,145.245,0\C,133,1.38931,132,123.489,131,-141.852,0\C,134,1.356,133,123.185,132,140.685,0\C,135,1.37888,134,108.689,133,-141.66,0\C,136,1.37669,135,109.419,134,-0.0777268,0\C,137,1.39241,136,122.831,135,145.54,0\C,120,1.4189,119,119.926,105,-139.805,0\C,139,1.39616,120,107.096,119,139.407,0\C,121,1.42476,120,118.152,119,4.7849,0\C,118,1.42597,117,116.846,116,139.158,0\C,142,1.39098,118,107.726,117,-134.587,0\C,143,1.41392,142,109.224,118,-4.37676,0\C,102,1.43483,101,121.631,100,-144.744,0\C,145,1.4161,102,118.66,101,-0.674531,0\C,146,1.48567,145,111.476,102,146.081,0\C,106,1.49518,105,118.486,104,-5.42917,0\C,147,1.56124,146,124.526,145,147.183,0\C,149,1.52595,147,119.75,146,3.68016,0\C,150,1.38504,149,121.53,147,-68.1361,0\H,151,1.08547,150,118.888,149,1.50353,0\C,150,1.41025,149,119.921,147,116.84,0\H,153,1.0859,150,112.333,149,-6.40055,0\C,153,1.42559,150,121.592,149,177.907,0\H,155,1.08502,153,122.871,150,-171.637,0\C,151,1.43521,150,121.174,149,178.983,0\H,157,1.08613,151,119.904,150,168.01,0\C,157,1.36222,151,120.102,150,2.26276,0\H,159,1.08621,157,118.834,151,165.375,0\C,149,1.54264,147,119.497,146,-150.089,0\H,161,1.09624,149,118.121,147,-162.116,0\H,161,1.09679,149,112.271,147,-40.1155,0\C,161,1.52774,149,110.972,147,75.3791,0\H,164,1.0964,161,110.767,149,75.242,0\H,164,1.09753,161,110.857,149,-43.5888,0\C,164,1.56306,161,115.682,149,-164.892,0\H,167,1.09678,164,111.17,161,-42.0799,0\H,167,1.09706,164,110.692,161,-165.003,0\C,167,1.52624,164,109.029,161,85.1843,0\O,170,1.2429,167,126.039,164,-98.1444,0\O,170,1.33949,167,110.071,164,81.0943,0\C,172,1.40117,170,123.357,167,-171.773,0\H,173,1.09662,172,115.107,170,72.4029,0\H,173,1.09679,172,107.167,170,-46.7085,0\H,173,1.09749,172,109.55,170,-161.194,0\\\@

 Total job time:  852.84s(wall), 8140.23s(cpu) 
 Fri Oct 12 10:27:30 2018

        *************************************************************
        *                                                           *
        *  Thank you very much for using Q-Chem.  Have a nice day.  *
        *                                                           *
        *************************************************************


