
Running Job 1 of 1 ./8/10.qcin
qchem ./8/10.qcin_6369.0 /tmpu/cab_g/afmv_a/scratch_qchem/qchem6369/ 1
/tmpu/appuserlic/qchem4.4/serial-multicore/exe/qcprog.exe_s ./8/10.qcin_6369.0 /tmpu/cab_g/afmv_a/scratch_qchem/qchem6369/
Check license passed

                  Welcome to Q-Chem
     A Quantum Leap Into The Future Of Chemistry


 Q-Chem 4.4, Q-Chem, Inc., Pleasanton, CA (2016)

 Y. Shao,  Z. Gan,  E. Epifanovsky,  A. T. B. Gilbert,  M. Wormit,  
 J. Kussmann,  A. W. Lange,  A. Behn,  J. Deng,  X. Feng,  D. Ghosh,  
 M. Goldey,  P. R. Horn,  L. D. Jacobson,  I. Kaliman,  F. Rob,  
 R. Z. Khaliullin,  T. Kus,  A. Landau,  J. Liu,  E. I. Proynov,  Y. M. Rhee,  
 R. M. Richard,  M. A. Rohrdanz,  R. P. Steele,  E. J. Sundstrom,  
 H. L. Woodcock III,  P. M. Zimmerman,  D. Zuev,  B. Albrecht,  E. Alguire,  
 B. Austin,  S. A. Baeppler,  G. J. O. Beran,  Y. A. Bernard,  E. Berquist,  
 K. Brandhorst,  K. B. Bravaya,  S. T. Brown,  D. Casanova,  C.-M. Chang,  
 Y. Chen,  S. H. Chien,  K. D. Closser,  M. P. Coons,  D. L. Crittenden,  
 S. Dasgupta,  M. Diedenhofen,  R. A. DiStasio Jr.,  H. Do,  A. D. Dutoi,  
 R. G. Edgar,  P.-T. Fang,  S. Fatehi,  Q. Feng,  L. Fusti-Molnar,  
 A. Ghysels,  A. Golubeva-Zadorozhnaya,  J. Gomes,  A. Gunina,  
 M. W. D. Hanson-Heine,  P. H. P. Harbach,  A. W. Hauser,  J. E. Herr,  
 E. G. Hohenstein,  Z. C. Holden,  K. Hui,  T.-C. Jagau,  H. Ji,  B. Kaduk,  
 K. Khistyaev,  Jaehoon Kim,  Jihan Kim,  R. A. King,  P. Klunzinger,  
 K. Koh,  D. Kosenkov,  T. Kowalczyk,  C. M. Krauter,  A. Kunitsa,  
 K. U. Lao,  A. Laurent,  K. V. Lawler,  J. Lee,  D. Lefrancois,  S. Lehtola,  
 S. V. Levchenko,  C. Y. Lin,  Y.-S. Lin,  F. Liu,  E. Livshits,  
 R. C. Lochan,  A. Luenser,  P. Manohar,  S. F. Manzer,  S.-P. Mao,  Y. Mao,  
 N. Mardirossian,  A. V. Marenich,  L. A. Martinez-Martinez,  S. A. Maurer,  
 N. J. Mayhall,  J.-M. Mewes,  A. F. Morrison,  K. Nanda,  T. S. Nguyen-Beck,  
 C. M. Oana,  R. Olivares-Amaya,  D. P. O'Neill,  J. A. Parkhill,  
 T. M. Perrine,  R. Peverati,  P. A. Pieniazek,  F. Plasser,  A. Prociuk,  
 D. R. Rehn,  E. Rosta,  N. J. Russ,  N. Sergueev,  S. M. Sharada,  
 S. Sharma,  D. W. Small,  A. Sodt,  T. Stauch,  T. Stein,  D. Stuck,  
 Y.-C. Su,  A. J. W. Thom,  T. Tsuchimochi,  L. Vogt,  O. Vydrov,  T. Wang,  
 M. A. Watson,  J. Wenzel,  A. White,  C. F. Williams,  V. Vanovschi,  
 K. Yao,  S. Yeganeh,  S. R. Yost,  Z.-Q. You,  I. Y. Zhang,  X. Zhang,  
 Y. Zhao,  B. R. Brooks,  G. K. L. Chan,  D. M. Chipman,  C. J. Cramer,  
 W. A. Goddard III,  M. S. Gordon,  W. J. Hehre,  A. Klamt,  
 H. F. Schaefer III,  M. W. Schmidt,  C. D. Sherrill,  D. G. Truhlar,  
 A. Warshel,  X. Xu,  A. Aspuru-Guzik,  R. Baer,  A. T. Bell,  N. A. Besley,  
 J.-D. Chai,  A. Dreuw,  B. D. Dunietz,  T. R. Furlani,  S. R. Gwaltney,  
 C.-P. Hsu,  Y. Jung,  J. Kong,  D. S. Lambrecht,  W. Liang,  C. Ochsenfeld,  
 V. A. Rassolov,  L. V. Slipchenko,  J. E. Subotnik,  T. Van Voorhis,  
 J. M. Herbert,  A. I. Krylov,  P. M. W. Gill,  M. Head-Gordon

 Contributors to earlier versions of Q-Chem not listed above: 
 R. D. Adamson,  J. Baker,  E. F. C. Byrd,  A. K. Chakraborty,  C.-L. Cheng,  
 H. Dachsel,  R. J. Doerksen,  G. Hawkins,  A. Heyden,  S. Hirata,  
 G. Kedziora,  F. J. Keil,  C. Kelley,  P. P. Korambath,  W. Kurlancheek,  
 A. M. Lee,  M. S. Lee,  D. Liotard,  I. Lotan,  P. E. Maslen,  N. Nair,  
 D. Neuhauser,  R. Olson,  B. Peters,  J. Ritchie,  N. E. Schultz,  
 N. Shenvi,  A. C. Simmonett,  K. S. Thanthiriwatte,  Q. Wu,  W. Zhang

 Please cite Q-Chem as follows:
 Y. Shao et al., Mol. Phys. 113, 184-215 (2015)
 DOI: 10.1080/00268976.2014.952696

 Q-Chem 4.4.2 for Intel X86 Linux

 Parts of Q-Chem use Armadillo 5.200.1 (Boston Tea Smuggler).
 http://arma.sourceforge.net/

 Q-Chem begins on Sun Oct  7 05:17:47 2018  

Host: 
0

     Scratch files written to /tmpu/cab_g/afmv_a/scratch_qchem/qchem6369//
 Dec716 11556_ 22328  22283 4050   
Processing $rem in /tmpu/appuserlic/qchem4.4/serial-multicore/config/preferences.
 MEM_TOTAL  2000 
FILE_GEOM_ORG=        593

Checking the input file for inconsistencies... 	...done.

--------------------------------------------------------------
User input:
--------------------------------------------------------------
$comment
SP
$end

$rem
MEM_STATIC 5000
MEM_TOTAL 20000
JOBTYPE SP
EXCHANGE B3LYP
BASIS 6-31g(d,p)
$end

$molecule
0 1
O         -18.767000      0.642000      9.871000
C         -20.161000      0.465000      9.415000
H         -20.309000     -0.361000      8.708000
H         -20.458000      1.405000      8.933000
H         -20.783000      0.293000     10.302000
O         -17.969000      1.102000      7.864000
C         -17.799000      0.922000      9.030000
C         -16.302000      0.861000      9.646000
H         -16.249000      1.660000     10.397000
H         -15.571000      1.213000      8.908000
C         -15.942000     -0.555000     10.206000
H         -16.719000     -0.893000     10.903000
H         -15.913000     -1.277000      9.380000
C         -14.625000     -0.559000     11.010000
H         -13.795000     -0.285000     10.347000
H         -14.836000      0.233000     11.738000
C         -14.180000     -1.868000     11.599000
C         -15.203000     -2.269000     12.696000
C         -16.003000     -3.419000     12.555000
H         -16.075000     -3.870000     11.569000
C         -16.849000     -3.950000     13.585000
H         -17.404000     -4.867000     13.412000
C         -16.917000     -3.240000     14.807000
H         -17.616000     -3.605000     15.554000
C         -16.195000     -2.060000     14.992000
H         -16.198000     -1.442000     15.885000
C         -15.294000     -1.637000     13.955000
H         -14.667000     -0.761000     14.087000
C         -10.198000     -4.294000     14.436000
C         -11.408000     -6.211000     13.478000
C          -8.392000     -7.489000     10.507000
C          -8.660000     -1.076000     10.679000
C          -9.885000     -5.847000      7.808000
C         -11.406000     -4.889000     13.968000
C          -8.297000     -2.582000      8.347000
C          -8.037000     -6.748000     12.771000
C         -13.171000     -5.093000     10.071000
C          -9.719000     -1.100000      9.702000
C         -13.339000     -2.930000     10.942000
C         -12.771000     -4.207000      9.013000
C         -10.790000     -2.509000      8.238000
C          -8.443000     -3.927000      7.880000
C         -13.023000     -4.939000     12.444000
C          -7.688000     -6.031000      8.890000
C         -12.686000     -2.039000     11.898000
C         -11.476000     -1.262000     11.387000
C          -8.914000     -6.584000      8.540000
C          -6.550000     -3.665000     11.910000
C          -6.716000     -5.775000     11.079000
C          -7.090000     -5.803000     12.412000
C          -9.021000     -6.318000     13.694000
C         -10.442000     -1.338000     12.353000
C         -13.437000     -4.365000     11.225000
C         -10.222000     -6.939000     13.324000
C          -9.507000     -1.925000      8.576000
C         -12.425000     -6.223000     12.491000
C         -11.817000     -4.673000      8.064000
C          -8.144000     -2.000000     12.707000
C          -8.653000     -7.634000     11.833000
C         -12.745000     -2.879000      9.535000
C          -7.955000     -4.099000     13.856000
C         -10.847000     -3.788000      7.635000
C         -12.575000     -6.360000     10.091000
C          -6.830000     -3.909000      9.461000
C          -7.354000     -2.651000      9.366000
C         -11.660000     -6.813000      9.186000
C          -9.057000     -1.180000     12.052000
C         -11.059000     -1.216000     10.066000
C          -7.166000     -2.372000     11.781000
C         -12.110000     -2.745000     13.104000
C         -11.002000     -7.645000     11.210000
C         -11.729000     -2.050000      9.116000
C         -11.246000     -5.964000      8.144000
C          -8.539000     -2.843000     13.728000
C          -9.377000     -7.467000      9.510000
C          -8.984000     -5.017000     14.243000
C          -7.346000     -6.593000     10.088000
C         -12.265000     -6.992000     11.367000
C         -10.727000     -7.569000      9.819000
C         -12.360000     -4.127000     13.349000
C         -10.868000     -2.205000     13.392000
C          -6.389000     -4.440000     10.743000
C         -10.023000     -7.729000     12.195000
C          -9.647000     -4.502000      7.449000
C          -7.534000     -1.866000     10.541000
C          -7.489000     -4.693000      8.524000
C          -9.904000     -2.937000     14.128000
C          -6.986000     -4.534000     12.921000
O         -11.172000      8.572000      9.938000
C         -10.786000      9.475000      8.932000
H          -9.928000      9.029000      8.415000
H         -10.352000     10.376000      9.383000
H         -11.586000      9.740000      8.230000
O          -8.964000      8.051000     10.368000
C         -10.138000      7.789000     10.486000
C         -10.607000      6.647000     11.340000
H          -9.915000      6.681000     12.191000
H         -10.222000      5.766000     10.813000
C         -12.048000      6.794000     11.827000
H         -12.192000      6.221000     12.751000
H         -12.245000      7.824000     12.151000
C         -13.166000      6.355000     10.845000
H         -14.162000      6.435000     11.299000
H         -13.190000      7.182000     10.125000
C         -13.074000      4.930000     10.156000
C         -13.214000      3.822000     11.178000
C         -14.452000      3.551000     11.743000
H         -15.284000      4.195000     11.472000
C         -14.571000      2.582000     12.725000
H         -15.580000      2.500000     13.118000
C         -13.427000      1.890000     13.213000
H         -13.488000      1.249000     14.088000
C         -12.141000      2.240000     12.718000
H         -11.274000      1.871000     13.258000
C         -12.081000      3.198000     11.735000
H         -11.127000      3.492000     11.307000
C         -10.446000      1.519000      6.847000
C         -12.748000      0.956000      6.586000
C         -13.302000      2.543000      2.400000
C          -9.870000      6.551000      5.973000
C         -14.925000      5.428000      3.474000
C         -11.751000      1.369000      7.419000
C         -11.831000      7.311000      4.053000
C         -11.407000      1.313000      3.335000
C         -15.152000      4.016000      7.221000
C         -11.061000      7.158000      6.398000
C         -13.615000      4.811000      8.805000
C         -15.103000      5.424000      7.027000
C         -13.326000      7.373000      6.022000
C         -12.881000      6.800000      3.274000
C         -13.625000      2.415000      8.118000
C         -13.077000      4.766000      1.980000
C         -12.126000      4.683000      9.039000
C         -11.198000      5.687000      8.280000
C         -14.359000      4.471000      2.584000
C          -9.392000      4.148000      3.405000
C         -11.024000      3.432000      2.151000
C         -10.494000      2.284000      2.821000
C         -11.225000      0.757000      4.631000
C         -10.071000      5.018000      7.854000
C         -14.340000      3.620000      8.258000
C         -12.470000      0.643000      5.218000
C         -12.047000      7.493000      5.427000
C         -13.926000      1.534000      7.039000
C         -15.292000      5.864000      5.707000
C          -8.904000      4.492000      5.766000
C         -12.797000      1.480000      3.123000
C         -14.105000      5.935000      7.867000
C          -9.309000      2.217000      4.947000
C         -14.380000      6.853000      5.216000
C         -15.505000      3.098000      6.207000
C         -10.983000      5.819000      2.599000
C         -10.641000      6.678000      3.648000
C         -15.682000      3.577000      4.863000
C          -9.376000      5.430000      6.716000
C         -11.769000      6.686000      7.493000
C          -9.132000      4.988000      4.488000
C         -11.441000      3.405000      8.752000
C         -14.688000      1.534000      4.696000
C         -13.185000      6.838000      7.319000
C         -15.539000      4.987000      4.596000
C          -9.094000      3.099000      6.037000
C         -14.508000      3.096000      2.757000
C         -10.151000      1.210000      5.437000
C         -12.428000      3.507000      1.993000
C         -14.889000      1.846000      6.073000
C         -15.211000      2.619000      3.928000
C         -12.216000      2.278000      8.402000
C         -10.201000      3.642000      8.115000
C         -10.310000      4.596000      2.499000
C         -13.447000      1.007000      4.249000
C         -14.166000      6.533000      3.816000
C          -9.669000      6.251000      4.600000
C         -12.353000      5.914000      2.326000
C          -9.768000      2.692000      7.184000
C          -9.488000      2.770000      3.658000
$end

--------------------------------------------------------------
 ----------------------------------------------------------------
             Standard Nuclear Orientation (Angstroms)
    I     Atom           X                Y                Z
 ----------------------------------------------------------------
    1      O      -0.9338788749     6.1430189734     3.2804828948
    2      C      -1.2475082188     6.9481456407     4.4787769673
    3      H      -0.9105601906     6.5081453544     5.4258222537
    4      H      -2.3385107271     7.0625127983     4.5064659558
    5      H      -0.7769290880     7.9309880848     4.3530271693
    6      O      -2.1655416063     4.4135980803     3.8875770317
    7      C      -1.4141562193     4.9319777289     3.1210533594
    8      C      -0.8009636450     4.0981606988     1.8748872280
    9      H      -1.1099489137     4.6344916618     0.9681964307
   10      H      -1.3340520294     3.1474960280     1.7525661004
   11      C       0.7464063309     3.8976236281     1.9918788554
   12      H       1.2395285767     4.8630540661     2.1608656008
   13      H       0.9672743569     3.2656862823     2.8615187269
   14      C       1.3709500601     3.3263493998     0.7017192193
   15      H       0.9584014270     2.3278872429     0.5108738722
   16      H       1.0107163988     4.0568945442    -0.0319731559
   17      C       2.8556824205     3.0940076032     0.6979632234
   18      C       3.5545664393     4.4778722420     0.7829266843
   19      C       4.3306759626     4.8299587404     1.9036720191
   20      H       4.2240850772     4.2308187008     2.8039223154
   21      C       5.1390756551     6.0120434450     1.9916645652
   22      H       5.7429108460     6.1916549731     2.8759528446
   23      C       5.1144724514     6.9050556064     0.8944262310
   24      H       5.6686500100     7.8334353571     0.9985092372
   25      C       4.3205045822     6.6456746172    -0.2237175545
   26      H       4.2258033864     7.2784065753    -1.1012504329
   27      C       3.6107254399     5.3973400051    -0.2867513978
   28      H       3.0345775893     5.1296341450    -1.1667037981
   29      C       7.0077614131     1.1887421407    -2.2887695327
   30      C       7.9710737666     1.2538074948    -0.0250229016
   31      C       8.1444445909    -3.0958986324     0.7536812556
   32      C       2.6926000716    -1.6772499232    -2.3273582081
   33      C       5.1646570024    -3.2144882373     2.5748392478
   34      C       7.0784918488     1.7675734301    -0.9878988458
   35      C       2.9095304740    -3.5920386939    -0.2964583672
   36      C       8.6743863755    -1.9210699834    -1.2809541787
   37      C       5.0479905873     0.8432423481     2.6680725269
   38      C       2.0527904401    -1.4164440377    -1.0627594870
   39      C       3.5914469709     1.8600171376     1.1481765697
   40      C       3.8443337745     0.0588750778     2.6864644312
   41      C       2.3592005745    -1.6705930226     1.1993499540
   42      C       3.8078819023    -3.9823269068     0.7471267142
   43      C       6.0973082858     2.1446071554     0.9703885145
   44      C       6.2320811043    -4.3501041685     0.6768478771
   45      C       3.4081660990     2.0576564989    -0.2876412478
   46      C       2.7053779303     0.9343695343    -1.0447840250
   47      C       6.3211740324    -3.6805722778     1.8914154946
   48      C       5.8758168041    -3.0712728393    -3.0982105569
   49      C       7.2482223897    -3.7911414057    -1.4343268002
   50      C       7.8559430060    -2.7181121609    -2.0642735378
   51      C       8.5841113172    -0.5268557999    -1.5113933778
   52      C       3.4210614376     0.6696534820    -2.2388571086
   53      C       4.9403435261     1.8561553054     1.7220939589
   54      C       8.7260278693     0.0994372918    -0.2653762610
   55      C       2.2476735224    -2.3869250062    -0.0559664228
   56      C       7.3234496844     1.4775806009     1.2155860799
   57      C       3.9475306540    -1.3330567553     2.9688633976
   58      C       4.5607845330    -1.0553233377    -3.4917937539
   59      C       8.8686040673    -2.1365683800     0.1190943666
   60      C       2.9663815790     0.5734537130     1.6858882119
   61      C       6.9496664500    -0.8928102487    -3.3228094862
   62      C       3.1503720613    -2.1997042663     2.2466264076
   63      C       6.2460878307     0.1648920822     2.9236286113
   64      C       4.8435073534    -4.3282780024    -1.2301066470
   65      C       3.6291556904    -3.7524482512    -1.4749231828
   66      C       6.3527781989    -1.1681272802     3.1940644537
   67      C       3.3808316793    -0.5756605416    -2.9326615111
   68      C       2.0955927786    -0.1625448081    -0.4565774336
   69      C       4.5989107914    -2.4365493042    -3.2841757924
   70      C       4.7000326307     2.1875283826    -1.0615030948
   71      C       8.1650380018    -0.6450544579     1.9041523522
   72      C       2.2300440525    -0.3333845603     0.9575274543
   73      C       5.1910207868    -1.9605673672     3.2119368874
   74      C       5.7104961903    -0.2892020931    -3.5101334355
   75      C       7.4684323906    -2.8974518914     1.9654338690
   76      C       7.7443318220    -0.0097995842    -2.5227262949
   77      C       7.3559942403    -4.0149252909    -0.0249258633
   78      C       7.4623075887     0.5590772393     2.2242520589
   79      C       7.4707310221    -1.6654868997     2.6062473954
   80      C       5.9585572514     2.2907975193    -0.3997627647
   81      C       4.5946715434     1.4667264427    -2.2389798906
   82      C       5.9990495784    -4.0168245217    -2.0593743334
   83      C       8.8872268922    -0.8564816083     0.7339114511
   84      C       3.8802058182    -3.3815096125     2.0119546985
   85      C       3.4979452228    -2.7854445375    -2.5126792384
   86      C       4.9434115222    -4.4915763948     0.1447601801
   87      C       5.7476357297     1.0093900827    -2.9233285144
   88      C       7.0357626623    -2.2830553248    -3.0733759870
   89      O      -6.3639172679     1.5393681880    -5.0798099528
   90      C      -7.5592492724     0.7995122482    -5.0951588105
   91      H      -7.2795901420    -0.2596050098    -5.0458596783
   92      H      -8.0351462026     0.8759600094    -6.0806717996
   93      H      -8.2673562617     1.0664965898    -4.3012237672
   94      O      -5.3235700490    -0.0454990892    -6.3979443837
   95      C      -5.2466237276     0.9075702425    -5.6586324654
   96      C      -3.9352109000     1.5827416788    -5.3797401434
   97      H      -3.4293095405     1.5401716751    -6.3526083818
   98      H      -3.3705984691     0.8170602860    -4.8347082108
   99      C      -4.0752395261     3.0340582381    -4.9222128454
  100      H      -3.1600696177     3.5912087165    -5.1564955448
  101      H      -4.8334248181     3.5575845742    -5.5186692465
  102      C      -4.3725773439     3.2670688068    -3.4174652596
  103      H      -4.3937188936     4.3353332832    -3.1666744238
  104      H      -5.4351245618     3.0063154987    -3.3406139614
  105      C      -3.4723294227     2.5444315508    -2.3306538331
  106      C      -2.0508468455     3.0636598884    -2.3698611813
  107      C      -1.7597336565     4.3280196957    -1.8779695381
  108      H      -2.5879693183     4.9384827407    -1.5290260479
  109      C      -0.4730321591     4.8311325499    -1.9713650006
  110      H      -0.3874845233     5.8459727761    -1.5944897994
  111      C       0.5563477328     4.0927831945    -2.6201802805
  112      H       1.5203376537     4.5437869697    -2.8382307959
  113      C       0.2400702763     2.8451198425    -3.2240227523
  114      H       0.9700040744     2.4121608779    -3.9016606980
  115      C      -1.0479929215     2.3862125880    -3.0900439098
  116      H      -1.3416220580     1.4309172238    -3.5154010505
  117      C      -1.7055635593    -2.0642534451    -0.0658476622
  118      C      -1.7522370183    -0.4927655460     1.7265087117
  119      C      -5.2451455211    -2.2361301355     3.9866748780
  120      C      -6.3374780622    -2.1651445286    -2.2911263026
  121      C      -7.4745657598     0.1755911643     2.8359725832
  122      C      -1.5262903494    -0.7219063601     0.4017787052
  123      C      -8.2647250600    -1.6085195435    -0.2698869215
  124      C      -3.4066941685    -3.3993324311     2.8707864233
  125      C      -4.4813765747     2.3096555495     1.2322675910
  126      C      -6.8578025618    -0.8687190812    -2.1642465389
  127      C      -4.1225742353     2.1595700353    -1.0812114384
  128      C      -5.7723793081     2.3998423460     0.6426242378
  129      C      -7.6198969296     0.7401708027    -0.6984663657
  130      C      -8.3897471066    -1.3226596658     1.0987312204
  131      C      -2.4080689988     1.3514094843     0.5375020376
  132      C      -7.3130366873    -2.2772667961     3.0428062960
  133      C      -3.6394117469     1.0964622841    -2.0427814666
  134      C      -4.7064096305     0.0899997695    -2.5848420933
  135      C      -6.9900682483    -0.9593499595     3.5469408010
  136      C      -5.4476535920    -4.4640212241     0.2624780816
  137      C      -5.7299765024    -4.0315702783     2.3795222365
  138      C      -4.3287833895    -4.2559048852     2.1950341764
  139      C      -2.2681085043    -2.8790217718     2.1964159738
  140      C      -4.1446682723    -1.1670564439    -2.6433427137
  141      C      -3.4959573192     2.2070901324     0.2783502853
  142      C      -2.1018805173    -1.5691493281     2.6016226342
  143      C      -7.7892255003    -0.6002650831    -1.1213439737
  144      C      -2.2318413705     0.8047965590     1.8417877168
  145      C      -6.8245867335     1.8509934976     1.3931876765
  146      C      -4.5075015367    -3.4059904535    -1.7193105047
  147      C      -3.8952599082    -2.3949381200     3.7410901552
  148      C      -5.6267277885     2.1909126099    -0.7350037963
  149      C      -3.0297131237    -3.9581394069     0.1573045170
  150      C      -7.7510587046     1.0118069129     0.6943589688
  151      C      -4.2509039846     1.8359397848     2.5429943968
  152      C      -7.5477313109    -3.3896830351     0.9017190617
  153      C      -7.7125845734    -2.8969049801    -0.3964485662
  154      C      -5.3460830303     1.2702413333     3.2830444762
  155      C      -4.9301318845    -2.3135163610    -2.5149309836
  156      C      -6.0441874510     0.2524609181    -2.2279557274
  157      C      -5.5939926067    -3.8896862352    -1.0003810607
  158      C      -2.5658433601     0.1657097494    -1.6353153476
  159      C      -3.5054432484     0.0334594573     3.8047625847
  160      C      -6.5059486182     1.2971333883    -1.3596976699
  161      C      -6.6579444691     1.2435679440     2.6845913905
  162      C      -3.2164397103    -3.3368470734    -1.1041938057
  163      C      -5.7549741338    -0.9770317142     4.1926844684
  164      C      -2.0761138456    -3.1780361976     0.8245379092
  165      C      -6.1159513340    -3.0002844554     3.2679354179
  166      C      -3.1371332430     1.0540172383     2.8791905694
  167      C      -4.8992063459     0.1839088762     4.0792938226
  168      C      -1.9068126671     0.3793852443    -0.4051627845
  169      C      -2.8625611423    -1.1483277933    -2.0652012560
  170      C      -6.4322874407    -4.1917682772     1.1683690889
  171      C      -3.0555810386    -1.3016442345     3.6238174984
  172      C      -8.1214520800    -0.0339086210     1.6311000053
  173      C      -6.7141113570    -3.1812870798    -1.3739939910
  174      C      -8.0008830347    -2.4493098747     1.8348888396
  175      C      -2.4272114187    -2.2008639779    -1.2531740408
  176      C      -4.1617998984    -4.4772353152     0.8268491178
 ----------------------------------------------------------------
 Molecular Point Group                 C1    NOp =  1
 Largest Abelian Subgroup              C1    NOp =  1
 Nuclear Repulsion Energy = 35350.4369069442 hartrees
 There are      462 alpha and      462 beta electrons
 Requested basis set is 6-31G(d,p)
 There are 676 shells and 2360 basis functions

 Total QAlloc Memory Limit  20000 MB
 Mega-Array Size      4888 MB
 MEM_STATIC part      5000 MB
 A cutoff of  1.0D-08 yielded  39327 shell pairs
 There are    541524 function pairs
 
 -------------------------------------------------------
 OpenMP Integral Computing Module                       
 Release: version 1.0, May 2013, Q-Chem Inc. Pittsburgh 
 -------------------------------------------------------
 Integral Job Info:
 Integral job number is                      11
 Integral operator is                         1
 short-range coefficients                     0
 long-range coefficients              100000000
 Omega coefficients                           0
 if combine SR and LR in K                    0
 Integral screening is                        0
 Integral computing path is                   2
 max size of driver memory is            800000
 size of driver memory is                593474
 size of scratch memory is              2260544
 max col of scratch BK array               1296
 max len of scratch array in speh3          155
 max len of scratch index in speh4           18
 max int batch size is                      520
 min int batch size is                       52
 fixed nKL is                                52
 max L of basis functions is                  2
 order of int derivative is                   0
 number of shells is                        676
 number of basis is                        2360
 number of cartesian basis is              2360
 number of contracted shell pairs         39327
 number of primitive shell pairs         117440
 maxK2 (contraction) of shell pair           36
 max number of K2 of shell pair               1
 max number of CS2 of shell pair           7317
 max number of PS2 of shell pair          35010
 mem total for path MDJ                 1528168
 -------------------------------------------------------
 Smallest overlap matrix eigenvalue = 2.59E-04

 Scale SEOQF with 1.000000e-02/1.000000e-02/1.000000e-02

 Standard Electronic Orientation quadrupole field applied
 Nucleus-field energy     =     0.0000000840 hartrees
 Guess from superposition of atomic densities
 Warning:  Energy on first SCF cycle will be non-variational
 A restricted hybrid HF-DFT SCF calculation will be
 performed using Pulay DIIS extrapolation
 Exchange:     0.2000 Hartree-Fock + 0.0800 Slater + 0.7200 B88
 Correlation:  0.1900 VWN1RPA + 0.8100 LYP
 Using SG-1 standard quadrature grid
 SCF converges when DIIS error is below 1.0E-05
 using 16 threads for integral computing 
 -------------------------------------------------------
 OpenMP BLAS3 based DFT computing Module                
 Release: version 1.0, May 2013, Q-Chem Inc. Pittsburgh 
 -------------------------------------------------------
 ---------------------------------------
  Cycle       Energy         DIIS Error
 ---------------------------------------
    1   -5858.0204295852      1.82E-02
    2   -5803.1844830931      1.28E-03
    3   -5802.5440371002      1.72E-03
    4   -5804.0288681308      6.21E-04
    5   -5804.2236760652      3.16E-04
    6   -5804.2932364934      1.28E-04
    7   -5804.3043744541      4.42E-05
    8   -5804.3052590376      2.72E-05
    9   -5804.3057588190      7.81E-06 Convergence criterion met
 ---------------------------------------
 SCF time:  CPU 7475.59 s  wall 854.41 s
 SCF   energy in the final basis set = -5804.3057588190
 Total energy in the final basis set = -5804.3057588190
 
 --------------------------------------------------------------
 
                    Orbital Energies (a.u.)
 --------------------------------------------------------------
 
 Alpha MOs
 -- Occupied --
-19.194 -19.191 -19.142 -19.124 -10.320 -10.310 -10.255 -10.243
-10.242 -10.241 -10.239 -10.239 -10.239 -10.236 -10.233 -10.231
-10.229 -10.229 -10.226 -10.225 -10.225 -10.225 -10.225 -10.224
-10.223 -10.223 -10.223 -10.223 -10.222 -10.222 -10.222 -10.221
-10.221 -10.221 -10.220 -10.220 -10.220 -10.220 -10.220 -10.220
-10.220 -10.219 -10.219 -10.218 -10.218 -10.218 -10.218 -10.217
-10.217 -10.217 -10.217 -10.217 -10.217 -10.217 -10.217 -10.217
-10.216 -10.216 -10.216 -10.216 -10.216 -10.216 -10.216 -10.216
-10.216 -10.216 -10.215 -10.215 -10.215 -10.215 -10.215 -10.215
-10.215 -10.215 -10.215 -10.214 -10.214 -10.214 -10.214 -10.214
-10.214 -10.214 -10.214 -10.214 -10.214 -10.214 -10.213 -10.213
-10.213 -10.213 -10.213 -10.213 -10.213 -10.213 -10.213 -10.213
-10.213 -10.213 -10.213 -10.212 -10.212 -10.212 -10.212 -10.212
-10.212 -10.212 -10.212 -10.212 -10.211 -10.211 -10.211 -10.211
-10.211 -10.211 -10.211 -10.211 -10.210 -10.210 -10.210 -10.210
-10.210 -10.210 -10.209 -10.209 -10.209 -10.209 -10.209 -10.209
-10.209 -10.208 -10.208 -10.208 -10.208 -10.207 -10.207 -10.206
-10.206 -10.205 -10.204 -10.204 -10.203 -10.203 -10.203 -10.202
-10.201 -10.198 -10.194 -10.193  -1.105  -1.094  -1.020  -1.012
 -0.982  -0.981  -0.966  -0.966  -0.962  -0.961  -0.959  -0.958
 -0.935  -0.935  -0.927  -0.927  -0.924  -0.923  -0.922  -0.922
 -0.919  -0.919  -0.898  -0.898  -0.888  -0.886  -0.885  -0.883
 -0.878  -0.870  -0.862  -0.849  -0.843  -0.842  -0.839  -0.839
 -0.837  -0.833  -0.819  -0.818  -0.809  -0.800  -0.799  -0.797
 -0.796  -0.794  -0.793  -0.792  -0.792  -0.789  -0.781  -0.779
 -0.771  -0.770  -0.769  -0.768  -0.767  -0.767  -0.766  -0.762
 -0.761  -0.744  -0.742  -0.741  -0.734  -0.732  -0.717  -0.716
 -0.715  -0.714  -0.713  -0.711  -0.711  -0.710  -0.709  -0.707
 -0.707  -0.706  -0.705  -0.703  -0.702  -0.702  -0.675  -0.670
 -0.658  -0.658  -0.657  -0.657  -0.650  -0.644  -0.631  -0.630
 -0.628  -0.627  -0.626  -0.624  -0.622  -0.620  -0.620  -0.619
 -0.617  -0.616  -0.614  -0.613  -0.612  -0.612  -0.609  -0.608
 -0.607  -0.604  -0.602  -0.600  -0.571  -0.568  -0.566  -0.565
 -0.563  -0.560  -0.558  -0.557  -0.555  -0.555  -0.554  -0.553
 -0.541  -0.535  -0.535  -0.530  -0.529  -0.528  -0.527  -0.526
 -0.522  -0.522  -0.519  -0.518  -0.515  -0.515  -0.513  -0.512
 -0.509  -0.506  -0.501  -0.495  -0.494  -0.491  -0.488  -0.484
 -0.484  -0.483  -0.482  -0.480  -0.480  -0.478  -0.476  -0.475
 -0.474  -0.472  -0.470  -0.470  -0.469  -0.466  -0.466  -0.465
 -0.464  -0.463  -0.463  -0.462  -0.461  -0.461  -0.459  -0.459
 -0.455  -0.453  -0.452  -0.451  -0.449  -0.448  -0.446  -0.444
 -0.444  -0.442  -0.440  -0.439  -0.438  -0.438  -0.436  -0.435
 -0.433  -0.430  -0.429  -0.429  -0.428  -0.426  -0.426  -0.423
 -0.422  -0.422  -0.421  -0.421  -0.420  -0.419  -0.418  -0.418
 -0.417  -0.417  -0.416  -0.416  -0.414  -0.414  -0.413  -0.413
 -0.413  -0.411  -0.411  -0.410  -0.403  -0.398  -0.397  -0.395
 -0.395  -0.394  -0.392  -0.391  -0.390  -0.389  -0.387  -0.385
 -0.383  -0.382  -0.379  -0.371  -0.370  -0.369  -0.367  -0.366
 -0.365  -0.363  -0.363  -0.362  -0.360  -0.360  -0.360  -0.358
 -0.358  -0.357  -0.356  -0.355  -0.355  -0.353  -0.352  -0.351
 -0.349  -0.347  -0.347  -0.346  -0.346  -0.344  -0.343  -0.342
 -0.342  -0.341  -0.340  -0.339  -0.338  -0.338  -0.335  -0.334
 -0.333  -0.332  -0.331  -0.329  -0.328  -0.326  -0.322  -0.321
 -0.318  -0.307  -0.301  -0.297  -0.288  -0.283  -0.275  -0.273
 -0.272  -0.271  -0.268  -0.268  -0.267  -0.266  -0.264  -0.263
 -0.262  -0.260  -0.260  -0.259  -0.258  -0.256  -0.255  -0.253
 -0.252  -0.250  -0.246  -0.241  -0.222  -0.220  -0.216  -0.212
 -0.211  -0.210  -0.207  -0.205  -0.199  -0.198
 -- Virtual --
 -0.124  -0.121  -0.121  -0.117  -0.108  -0.106  -0.078  -0.077
 -0.075  -0.071  -0.062  -0.055  -0.053  -0.053  -0.029  -0.023
 -0.022  -0.022  -0.020  -0.019  -0.018  -0.017  -0.016  -0.014
 -0.013  -0.012  -0.010  -0.009  -0.008  -0.004   0.000   0.003
  0.003   0.025   0.032   0.037   0.039   0.041   0.042   0.046
  0.046   0.054   0.054   0.057   0.060   0.063   0.064   0.065
  0.068   0.069   0.075   0.077   0.079   0.082   0.085   0.086
  0.090   0.092   0.095   0.096   0.098   0.100   0.102   0.106
  0.107   0.109   0.110   0.112   0.113   0.115   0.118   0.120
  0.121   0.121   0.123   0.125   0.126   0.130   0.131   0.135
  0.136   0.142   0.144   0.148   0.149   0.152   0.154   0.156
  0.157   0.159   0.160   0.163   0.164   0.166   0.169   0.170
  0.171   0.173   0.174   0.176   0.178   0.179   0.180   0.181
  0.183   0.184   0.186   0.188   0.189   0.189   0.191   0.193
  0.195   0.197   0.200   0.200   0.202   0.204   0.205   0.205
  0.208   0.210   0.210   0.214   0.215   0.216   0.217   0.219
  0.220   0.222   0.222   0.224   0.225   0.226   0.229   0.230
  0.232   0.232   0.233   0.235   0.237   0.238   0.240   0.240
  0.242   0.242   0.245   0.247   0.250   0.252   0.256   0.257
  0.261   0.263   0.270   0.271   0.274   0.275   0.276   0.278
  0.281   0.283   0.284   0.290   0.295   0.301   0.301   0.301
  0.305   0.307   0.308   0.313   0.313   0.313   0.314   0.317
  0.319   0.323   0.324   0.325   0.327   0.328   0.329   0.333
  0.334   0.337   0.341   0.344   0.345   0.345   0.347   0.347
  0.350   0.351   0.357   0.361   0.367   0.374   0.381   0.387
  0.388   0.393   0.395   0.400   0.402   0.404   0.405   0.407
  0.410   0.411   0.411   0.414   0.415   0.417   0.421   0.425
  0.427   0.427   0.429   0.430   0.432   0.434   0.435   0.441
  0.445   0.448   0.450   0.453   0.455   0.457   0.462   0.463
  0.465   0.466   0.469   0.470   0.472   0.473   0.474   0.475
  0.477   0.478   0.479   0.480   0.482   0.482   0.484   0.485
  0.485   0.487   0.488   0.489   0.490   0.492   0.493   0.494
  0.495   0.496   0.498   0.498   0.500   0.501   0.502   0.503
  0.505   0.506   0.507   0.507   0.509   0.509   0.511   0.511
  0.512   0.512   0.514   0.515   0.516   0.517   0.517   0.518
  0.518   0.519   0.520   0.520   0.521   0.522   0.522   0.523
  0.525   0.525   0.526   0.527   0.528   0.529   0.530   0.531
  0.532   0.533   0.534   0.535   0.535   0.536   0.537   0.538
  0.539   0.539   0.541   0.542   0.542   0.543   0.544   0.545
  0.546   0.547   0.547   0.548   0.549   0.549   0.550   0.551
  0.551   0.552   0.552   0.553   0.553   0.555   0.555   0.556
  0.556   0.557   0.558   0.560   0.561   0.561   0.562   0.563
  0.563   0.565   0.566   0.567   0.567   0.569   0.570   0.571
  0.572   0.573   0.574   0.574   0.575   0.576   0.577   0.577
  0.578   0.579   0.580   0.582   0.582   0.583   0.585   0.585
  0.586   0.586   0.587   0.587   0.589   0.589   0.590   0.590
  0.591   0.592   0.594   0.595   0.596   0.597   0.597   0.598
  0.599   0.599   0.600   0.602   0.603   0.605   0.605   0.608
  0.608   0.609   0.610   0.612   0.613   0.614   0.615   0.617
  0.618   0.619   0.619   0.620   0.622   0.624   0.625   0.626
  0.628   0.629   0.630   0.631   0.632   0.633   0.634   0.634
  0.635   0.636   0.636   0.637   0.638   0.639   0.640   0.640
  0.642   0.643   0.645   0.647   0.649   0.649   0.650   0.651
  0.652   0.653   0.654   0.655   0.656   0.657   0.657   0.658
  0.659   0.661   0.661   0.662   0.663   0.663   0.664   0.665
  0.666   0.667   0.668   0.668   0.669   0.669   0.671   0.672
  0.673   0.674   0.675   0.676   0.676   0.678   0.680   0.682
  0.682   0.683   0.683   0.684   0.686   0.687   0.688   0.689
  0.690   0.691   0.692   0.693   0.694   0.695   0.695   0.697
  0.699   0.701   0.702   0.703   0.703   0.705   0.706   0.706
  0.708   0.708   0.710   0.712   0.712   0.713   0.715   0.716
  0.717   0.719   0.719   0.721   0.722   0.723   0.724   0.725
  0.727   0.727   0.728   0.729   0.730   0.732   0.733   0.735
  0.735   0.737   0.737   0.739   0.740   0.741   0.746   0.746
  0.746   0.748   0.749   0.750   0.751   0.754   0.754   0.757
  0.758   0.760   0.762   0.762   0.763   0.764   0.766   0.769
  0.770   0.771   0.772   0.773   0.773   0.774   0.775   0.776
  0.778   0.779   0.781   0.781   0.783   0.786   0.786   0.789
  0.790   0.791   0.793   0.795   0.796   0.796   0.797   0.797
  0.799   0.801   0.801   0.802   0.802   0.804   0.804   0.805
  0.806   0.807   0.808   0.808   0.809   0.810   0.811   0.811
  0.812   0.813   0.814   0.814   0.816   0.817   0.817   0.818
  0.819   0.819   0.821   0.821   0.822   0.823   0.824   0.825
  0.826   0.827   0.827   0.829   0.830   0.832   0.835   0.836
  0.838   0.838   0.840   0.844   0.845   0.848   0.849   0.850
  0.854   0.857   0.858   0.860   0.864   0.869   0.870   0.873
  0.874   0.876   0.878   0.881   0.884   0.886   0.890   0.890
  0.896   0.901   0.902   0.905   0.907   0.911   0.911   0.914
  0.915   0.917   0.920   0.922   0.924   0.925   0.927   0.927
  0.929   0.931   0.932   0.933   0.935   0.937   0.939   0.941
  0.942   0.943   0.944   0.944   0.947   0.947   0.949   0.953
  0.956   0.957   0.959   0.964   0.966   0.969   0.972   0.974
  0.979   0.980   0.982   0.988   0.990   0.993   0.995   0.997
  0.999   0.999   1.001   1.004   1.006   1.008   1.010   1.012
  1.014   1.015   1.016   1.017   1.018   1.020   1.021   1.023
  1.024   1.024   1.026   1.028   1.031   1.032   1.034   1.034
  1.035   1.039   1.039   1.040   1.041   1.044   1.045   1.047
  1.049   1.050   1.052   1.052   1.055   1.056   1.059   1.061
  1.062   1.063   1.067   1.068   1.070   1.071   1.073   1.073
  1.077   1.078   1.078   1.080   1.081   1.082   1.083   1.084
  1.087   1.088   1.090   1.092   1.094   1.094   1.096   1.097
  1.099   1.101   1.104   1.106   1.107   1.110   1.112   1.114
  1.117   1.120   1.121   1.124   1.125   1.127   1.129   1.130
  1.132   1.135   1.139   1.140   1.142   1.146   1.147   1.147
  1.150   1.151   1.154   1.155   1.157   1.158   1.160   1.162
  1.163   1.164   1.166   1.167   1.169   1.171   1.171   1.173
  1.174   1.175   1.176   1.178   1.179   1.180   1.183   1.185
  1.187   1.188   1.188   1.190   1.193   1.195   1.197   1.199
  1.203   1.204   1.208   1.211   1.213   1.215   1.218   1.219
  1.222   1.223   1.223   1.231   1.234   1.235   1.238   1.242
  1.245   1.246   1.251   1.253   1.256   1.257   1.259   1.261
  1.262   1.263   1.265   1.268   1.269   1.273   1.274   1.275
  1.276   1.278   1.280   1.282   1.283   1.284   1.287   1.290
  1.291   1.293   1.295   1.299   1.300   1.302   1.305   1.307
  1.309   1.311   1.315   1.319   1.323   1.327   1.329   1.331
  1.337   1.339   1.340   1.344   1.345   1.346   1.348   1.349
  1.351   1.353   1.355   1.356   1.360   1.363   1.368   1.369
  1.372   1.373   1.375   1.378   1.380   1.381   1.386   1.386
  1.389   1.390   1.393   1.395   1.399   1.402   1.403   1.404
  1.406   1.409   1.411   1.417   1.418   1.421   1.423   1.427
  1.430   1.433   1.436   1.437   1.439   1.448   1.450   1.450
  1.451   1.455   1.455   1.457   1.459   1.461   1.463   1.463
  1.464   1.467   1.470   1.472   1.474   1.476   1.477   1.479
  1.481   1.483   1.485   1.486   1.487   1.491   1.500   1.502
  1.504   1.506   1.508   1.510   1.511   1.513   1.517   1.518
  1.522   1.526   1.528   1.532   1.534   1.537   1.539   1.541
  1.541   1.542   1.544   1.547   1.552   1.555   1.556   1.557
  1.560   1.561   1.563   1.566   1.569   1.569   1.570   1.572
  1.573   1.578   1.581   1.583   1.584   1.587   1.590   1.591
  1.595   1.597   1.601   1.604   1.608   1.610   1.615   1.619
  1.620   1.628   1.631   1.633   1.635   1.638   1.640   1.643
  1.645   1.647   1.651   1.654   1.659   1.661   1.664   1.667
  1.672   1.676   1.684   1.687   1.688   1.690   1.692   1.697
  1.699   1.702   1.704   1.707   1.710   1.711   1.714   1.715
  1.718   1.718   1.719   1.723   1.723   1.726   1.727   1.728
  1.731   1.733   1.734   1.735   1.738   1.740   1.741   1.744
  1.746   1.748   1.749   1.751   1.754   1.754   1.755   1.757
  1.759   1.761   1.761   1.762   1.763   1.766   1.767   1.767
  1.770   1.770   1.772   1.773   1.774   1.775   1.775   1.776
  1.778   1.779   1.780   1.782   1.783   1.784   1.785   1.786
  1.786   1.788   1.789   1.790   1.791   1.792   1.794   1.796
  1.796   1.798   1.798   1.799   1.800   1.802   1.803   1.803
  1.806   1.807   1.809   1.810   1.813   1.815   1.818   1.820
  1.823   1.827   1.828   1.829   1.831   1.833   1.838   1.841
  1.842   1.844   1.844   1.848   1.849   1.851   1.853   1.854
  1.855   1.857   1.859   1.860   1.860   1.863   1.865   1.867
  1.868   1.869   1.871   1.874   1.876   1.878   1.880   1.882
  1.883   1.885   1.888   1.890   1.894   1.897   1.899   1.904
  1.906   1.908   1.908   1.912   1.916   1.918   1.920   1.921
  1.924   1.926   1.930   1.931   1.932   1.933   1.936   1.937
  1.939   1.939   1.942   1.945   1.946   1.948   1.950   1.953
  1.955   1.957   1.958   1.961   1.962   1.966   1.969   1.970
  1.972   1.972   1.975   1.977   1.980   1.982   1.982   1.984
  1.986   1.986   1.988   1.989   1.992   1.993   1.995   1.996
  1.997   1.999   2.000   2.003   2.004   2.005   2.006   2.007
  2.009   2.009   2.010   2.012   2.014   2.014   2.014   2.017
  2.018   2.019   2.020   2.020   2.022   2.022   2.023   2.025
  2.027   2.028   2.029   2.031   2.032   2.033   2.034   2.035
  2.036   2.037   2.038   2.039   2.040   2.041   2.042   2.043
  2.045   2.047   2.047   2.048   2.049   2.050   2.051   2.052
  2.054   2.055   2.056   2.058   2.059   2.060   2.060   2.062
  2.063   2.066   2.070   2.071   2.072   2.073   2.076   2.077
  2.078   2.079   2.080   2.081   2.082   2.085   2.086   2.089
  2.090   2.091   2.093   2.095   2.098   2.099   2.101   2.101
  2.104   2.107   2.110   2.111   2.113   2.113   2.116   2.119
  2.121   2.124   2.127   2.127   2.130   2.139   2.142   2.142
  2.146   2.149   2.151   2.153   2.158   2.162   2.164   2.166
  2.174   2.178   2.181   2.184   2.187   2.193   2.196   2.198
  2.203   2.208   2.210   2.212   2.217   2.222   2.225   2.227
  2.228   2.230   2.231   2.238   2.239   2.240   2.240   2.244
  2.246   2.250   2.251   2.254   2.258   2.260   2.261   2.262
  2.263   2.265   2.270   2.272   2.273   2.277   2.279   2.280
  2.282   2.284   2.286   2.288   2.289   2.293   2.293   2.295
  2.299   2.301   2.303   2.305   2.306   2.312   2.313   2.317
  2.317   2.320   2.324   2.327   2.328   2.329   2.333   2.336
  2.339   2.341   2.341   2.342   2.343   2.346   2.347   2.350
  2.351   2.352   2.353   2.358   2.359   2.360   2.362   2.364
  2.368   2.369   2.370   2.372   2.373   2.374   2.377   2.377
  2.379   2.380   2.383   2.385   2.386   2.387   2.391   2.393
  2.394   2.395   2.399   2.400   2.402   2.403   2.406   2.407
  2.408   2.410   2.413   2.414   2.416   2.419   2.419   2.422
  2.423   2.427   2.432   2.433   2.436   2.437   2.439   2.441
  2.445   2.447   2.451   2.452   2.454   2.456   2.458   2.458
  2.461   2.462   2.464   2.467   2.471   2.471   2.473   2.474
  2.476   2.479   2.479   2.482   2.483   2.485   2.490   2.490
  2.492   2.492   2.493   2.495   2.498   2.500   2.502   2.505
  2.506   2.507   2.509   2.511   2.513   2.515   2.518   2.519
  2.523   2.524   2.525   2.529   2.530   2.532   2.535   2.539
  2.540   2.541   2.543   2.544   2.550   2.551   2.556   2.558
  2.566   2.568   2.573   2.576   2.579   2.583   2.584   2.588
  2.591   2.592   2.593   2.596   2.597   2.599   2.601   2.602
  2.605   2.606   2.608   2.612   2.615   2.616   2.618   2.620
  2.622   2.622   2.624   2.625   2.626   2.628   2.629   2.630
  2.634   2.636   2.638   2.640   2.641   2.642   2.644   2.645
  2.646   2.651   2.652   2.654   2.654   2.657   2.657   2.660
  2.661   2.663   2.664   2.667   2.668   2.669   2.669   2.671
  2.673   2.676   2.677   2.679   2.680   2.681   2.684   2.684
  2.688   2.690   2.691   2.692   2.695   2.697   2.697   2.700
  2.707   2.708   2.712   2.714   2.718   2.718   2.720   2.722
  2.723   2.726   2.728   2.729   2.731   2.734   2.737   2.737
  2.738   2.741   2.745   2.749   2.750   2.752   2.753   2.756
  2.757   2.759   2.760   2.764   2.766   2.768   2.770   2.772
  2.774   2.774   2.779   2.779   2.781   2.785   2.787   2.788
  2.793   2.796   2.804   2.804   2.808   2.810   2.815   2.817
  2.821   2.828   2.830   2.831   2.836   2.837   2.840   2.842
  2.843   2.846   2.848   2.848   2.854   2.854   2.856   2.858
  2.862   2.863   2.867   2.870   2.871   2.873   2.875   2.878
  2.880   2.881   2.882   2.883   2.885   2.887   2.888   2.889
  2.891   2.892   2.894   2.896   2.896   2.899   2.901   2.902
  2.904   2.906   2.908   2.908   2.913   2.915   2.916   2.916
  2.918   2.920   2.920   2.922   2.924   2.927   2.928   2.931
  2.933   2.936   2.939   2.941   2.942   2.945   2.947   2.951
  2.953   2.958   2.960   2.960   2.966   2.969   2.972   2.974
  2.977   2.981   2.983   2.986   2.989   2.991   2.992   2.997
  2.999   3.000   3.003   3.005   3.010   3.014   3.016   3.018
  3.019   3.026   3.027   3.029   3.031   3.032   3.035   3.037
  3.040   3.041   3.045   3.050   3.053   3.054   3.057   3.058
  3.063   3.066   3.069   3.071   3.079   3.079   3.087   3.101
  3.112   3.117   3.120   3.125   3.137   3.140   3.141   3.144
  3.151   3.162   3.170   3.172   3.179   3.183   3.183   3.187
  3.188   3.191   3.199   3.205   3.218   3.224   3.230   3.230
  3.233   3.237   3.247   3.252   3.257   3.262   3.267   3.279
  3.288   3.295   3.301   3.316   3.317   3.317   3.323   3.330
  3.331   3.341   3.342   3.345   3.351   3.367   3.377   3.388
  3.404   3.417   3.428   3.429   3.431   3.435   3.441   3.445
  3.453   3.457   3.460   3.466   3.467   3.473   3.477   3.487
  3.496   3.502   3.512   3.518   3.525   3.536   3.539   3.541
  3.555   3.559   3.562   3.573   3.577   3.582   3.584   3.601
  3.617   3.631   3.670   3.689   3.827   3.861   4.016   4.070
  4.074   4.078   4.080   4.084   4.089   4.091   4.091   4.092
  4.098   4.100   4.104   4.106   4.108   4.111   4.114   4.120
  4.123   4.127   4.130   4.135   4.138   4.147   4.150   4.154
  4.158   4.162   4.165   4.169   4.171   4.174   4.178   4.178
  4.185   4.198   4.200   4.202   4.207   4.221   4.238   4.243
  4.247   4.249   4.251   4.252   4.254   4.255   4.258   4.261
  4.262   4.269   4.277   4.283   4.287   4.288   4.295   4.299
  4.305   4.307   4.334   4.343   4.374   4.377   4.387   4.392
  4.393   4.396   4.397   4.399   4.408   4.408   4.409   4.417
  4.418   4.421   4.425   4.428   4.440   4.458   4.466   4.471
  4.488   4.495   4.502   4.518   4.528   4.528   4.547   4.550
  4.556   4.565   4.615   4.618   4.622   4.628   4.632   4.639
  4.642   4.675   4.682   4.687   4.689   4.692   4.695   4.698
  4.701   4.705   4.712   4.717   4.742   4.760   4.774   4.815
  4.825   4.852   4.856   4.863   4.871   4.877   4.888   4.889
  4.892   4.898   4.945   4.960   4.964   4.966   4.968   4.973
  4.978   4.995   5.000   5.009   5.159   5.164   5.168   5.181
  5.185   5.191   5.219   5.219   5.308   5.314   5.331   5.338
  5.349   5.351
 --------------------------------------------------------------
 
          Ground-State Mulliken Net Atomic Charges

     Atom                 Charge (a.u.)
  ----------------------------------------
      1 O                    -0.446682
      2 C                    -0.089909
      3 H                     0.137013
      4 H                     0.136862
      5 H                     0.129132
      6 O                    -0.458330
      7 C                     0.552805
      8 C                    -0.249844
      9 H                     0.106875
     10 H                     0.135534
     11 C                    -0.195713
     12 H                     0.118380
     13 H                     0.103335
     14 C                    -0.174633
     15 H                     0.096367
     16 H                     0.124157
     17 C                     0.023370
     18 C                     0.099960
     19 C                    -0.134547
     20 H                     0.088820
     21 C                    -0.081395
     22 H                     0.097822
     23 C                    -0.095281
     24 H                     0.090440
     25 C                    -0.075294
     26 H                     0.093965
     27 C                    -0.127537
     28 H                     0.077479
     29 C                    -0.021552
     30 C                     0.013731
     31 C                     0.013500
     32 C                    -0.035850
     33 C                    -0.002996
     34 C                    -0.002728
     35 C                    -0.039949
     36 C                    -0.010117
     37 C                    -0.008389
     38 C                     0.000826
     39 C                    -0.080899
     40 C                    -0.015210
     41 C                     0.022490
     42 C                     0.022601
     43 C                     0.005046
     44 C                     0.013742
     45 C                    -0.104729
     46 C                     0.048503
     47 C                    -0.009383
     48 C                    -0.023452
     49 C                    -0.021117
     50 C                     0.037627
     51 C                     0.009163
     52 C                     0.002238
     53 C                     0.043119
     54 C                    -0.004799
     55 C                     0.010254
     56 C                    -0.006925
     57 C                     0.006777
     58 C                     0.021827
     59 C                    -0.023409
     60 C                     0.043468
     61 C                    -0.019372
     62 C                    -0.018138
     63 C                     0.006067
     64 C                     0.007261
     65 C                     0.010904
     66 C                     0.022109
     67 C                    -0.031443
     68 C                    -0.008243
     69 C                    -0.005588
     70 C                     0.047682
     71 C                     0.019383
     72 C                    -0.005515
     73 C                    -0.007400
     74 C                     0.021283
     75 C                     0.006605
     76 C                    -0.001545
     77 C                    -0.009586
     78 C                    -0.054168
     79 C                    -0.003281
     80 C                     0.022333
     81 C                     0.004205
     82 C                    -0.011483
     83 C                    -0.002672
     84 C                    -0.021840
     85 C                     0.026268
     86 C                     0.003256
     87 C                    -0.035058
     88 C                     0.008790
     89 O                    -0.480147
     90 C                    -0.087218
     91 H                     0.129006
     92 H                     0.116565
     93 H                     0.120985
     94 O                    -0.459775
     95 C                     0.611969
     96 C                    -0.266319
     97 H                     0.143515
     98 H                     0.145521
     99 C                    -0.192215
    100 H                     0.104661
    101 H                     0.120249
    102 C                    -0.187635
    103 H                     0.099065
    104 H                     0.128184
    105 C                     0.007295
    106 C                     0.102046
    107 C                    -0.103547
    108 H                     0.094607
    109 C                    -0.103375
    110 H                     0.096659
    111 C                    -0.102779
    112 H                     0.099142
    113 C                    -0.087942
    114 H                     0.106260
    115 C                    -0.103642
    116 H                     0.088116
    117 C                    -0.019666
    118 C                     0.021946
    119 C                     0.023338
    120 C                    -0.033159
    121 C                     0.008874
    122 C                    -0.028806
    123 C                    -0.002669
    124 C                    -0.001222
    125 C                     0.025209
    126 C                     0.004385
    127 C                    -0.095691
    128 C                     0.011326
    129 C                    -0.028797
    130 C                     0.002555
    131 C                    -0.021722
    132 C                    -0.021996
    133 C                    -0.083513
    134 C                    -0.001860
    135 C                    -0.012985
    136 C                     0.010585
    137 C                    -0.015138
    138 C                    -0.029795
    139 C                    -0.009198
    140 C                     0.034661
    141 C                     0.030831
    142 C                     0.021897
    143 C                     0.002468
    144 C                    -0.016273
    145 C                    -0.020371
    146 C                    -0.008478
    147 C                     0.013980
    148 C                     0.024914
    149 C                     0.013606
    150 C                    -0.019189
    151 C                     0.030821
    152 C                     0.023649
    153 C                    -0.024963
    154 C                    -0.017813
    155 C                    -0.019018
    156 C                     0.019650
    157 C                     0.017478
    158 C                     0.012668
    159 C                    -0.003107
    160 C                     0.020397
    161 C                     0.014303
    162 C                    -0.022183
    163 C                     0.001986
    164 C                    -0.024520
    165 C                     0.018283
    166 C                     0.020690
    167 C                    -0.013639
    168 C                     0.005909
    169 C                     0.001481
    170 C                     0.007859
    171 C                    -0.009825
    172 C                     0.004738
    173 C                     0.012620
    174 C                    -0.007628
    175 C                     0.037139
    176 C                     0.016360
  ----------------------------------------
  Sum of atomic charges =     0.000000

 -----------------------------------------------------------------
                    Cartesian Multipole Moments
 -----------------------------------------------------------------
    Charge (ESU x 10^10)
                 0.0000
    Dipole Moment (Debye)
         X      -0.1007      Y       6.3970      Z       0.2404
       Tot       6.4023
    Quadrupole Moments (Debye-Ang)
        XX    -822.2361     XY       1.3031     YY    -771.2834
        XZ       7.8706     YZ      -3.8808     ZZ    -816.0524
    Octopole Moments (Debye-Ang^2)
       XXX    -234.3175    XXY     144.9057    XYY      -6.5974
       YYY     519.2272    XXZ     -16.9530    XYZ      69.5575
       YYZ      66.5503    XZZ      52.5508    YZZ     196.1816
       ZZZ      79.5531
    Hexadecapole Moments (Debye-Ang^3)
      XXXX -134308.8974   XXXY    -102.2845   XXYY  -28438.2774
      XYYY     231.4441   YYYY  -36425.0094   XXXZ    1331.9174
      XXYZ     -91.7228   XYYZ     271.2873   YYYZ    1040.0841
      XXZZ  -27435.0898   XYZZ    -157.5990   YYZZ  -10555.5895
      XZZZ     104.7942   YZZZ     194.4861   ZZZZ  -29418.4654
 -----------------------------------------------------------------
Archival summary:
1\1\mn366\SP\ProcedureUnspecified\6-31G**\428\afmv_a\SunOct705:32:182018SunOct705:32:182018\0\\#,ProcedureUnspecified,6-31G**,\\0,1\C\C,1,1.41183\C,2,1.41405,1,120.231\C,3,1.39884,2,117.222,1,2.61805,0\C,4,1.39123,3,120,2,-143.187,0\C,4,1.39613,3,125.516,2,1.12258,0\C,3,1.40656,2,109.184,1,-139.467,0\C,7,1.3781,3,109.996,2,1.01912,0\C,8,1.39406,7,120.553,3,137.236,0\C,9,1.38675,8,118.722,7,11.2633,0\C,7,1.39564,3,119.086,2,147.196,0\C,10,1.4027,9,121.699,8,-7.73885,0\C,11,1.41603,7,121.164,3,-5.53963,0\C,13,1.38971,11,109.017,7,-138.393,0\C,14,1.37698,13,108.454,11,-3.32456,0\C,14,1.39502,13,121.978,11,148.669,0\C,16,1.36538,14,116.287,13,-142.465,0\C,17,1.39952,16,124.238,14,-0.00987752,0\C,18,1.3983,17,118.218,16,-3.99015,0\C,18,1.40016,17,121.056,16,137.154,0\C,20,1.40064,18,119.889,17,-1.66412,0\C,20,1.40089,18,106.245,17,-140.867,0\C,22,1.40373,20,108.896,18,-4.11272,0\C,23,1.40273,22,118.401,20,141.235,0\C,16,1.40432,14,117.628,13,-3.30865,0\C,25,1.39599,16,106.431,14,-142.951,0\C,17,1.40918,16,103.503,14,141.272,0\C,25,1.41399,16,122.639,14,1.14142,0\C,28,1.40111,25,121.589,16,-137.259,0\C,27,1.41485,17,119.116,16,-139.407,0\C,30,1.36339,27,124.424,17,141.002,0\C,31,1.37393,30,110.835,27,-149.213,0\C,31,1.3812,30,117.778,27,-6.20647,0\C,33,1.38351,31,121.156,30,-136.012,0\C,32,1.39383,31,105.722,30,1.12103,0\C,24,1.41572,23,122.669,22,9.59243,0\C,36,1.41008,24,109.172,23,-145.987,0\C,37,1.40075,36,122.599,24,142.999,0\C,38,1.40097,37,117.933,36,-8.18909,0\C,39,1.40418,38,123.04,37,5.84787,0\C,33,1.41596,31,121.875,30,5.93371,0\C,29,1.41715,28,119.096,25,1.40075,0\C,42,1.38116,29,117.892,28,132.543,0\C,1,1.41732,2,120.252,3,-0.609951,0\C,44,1.36326,1,112.219,2,139.08,0\C,45,1.38816,44,107.162,1,2.92152,0\C,46,1.39924,45,116.846,44,-148.179,0\C,47,1.40175,46,115.824,45,136.162,0\C,48,1.41263,47,122.631,46,-2.14836,0\C,49,1.37533,48,120.109,47,11.037,0\C,50,1.40814,49,118.113,48,-15.0105,0\C,22,1.41996,20,118.716,18,142.041,0\C,52,1.3835,22,123.525,20,-1.01619,0\C,53,1.35291,52,107.717,22,-141.384,0\C,34,1.42043,33,122.666,31,-2.87405,0\C,36,1.42511,24,117.477,23,-9.54693,0\C,55,1.42849,34,115.625,33,1.77713,0\C,57,1.41909,55,106.263,34,136.386,0\C,2,1.47813,1,118.942,3,-141.604,0\C,59,1.48573,2,125.832,1,-63.6901,0\C,60,1.46015,59,61.7867,2,106.119,0\C,60,1.51385,59,116.416,2,-7.83405,0\C,62,1.38756,60,120.023,59,143.133,0\H,63,1.08646,62,117.769,60,3.67301,0\C,63,1.38472,62,120.14,60,176.872,0\H,65,1.08593,63,112.913,62,-177.217,0\C,62,1.4083,60,121.125,59,-47.3316,0\H,67,1.08616,62,115.521,60,6.1519,0\C,67,1.37392,62,123.835,60,-176.293,0\H,69,1.08602,67,123.904,62,169.974,0\C,69,1.42173,67,117.404,62,1.46043,0\H,71,1.08638,69,118.455,67,170.955,0\C,60,1.5855,59,120.874,2,-147.664,0\H,73,1.09677,60,113.184,59,-45.1682,0\H,73,1.09751,60,107.334,59,-156.138,0\C,73,1.55144,60,119.181,59,75.5424,0\H,76,1.09674,73,106.907,60,73.4735,0\H,76,1.09758,73,108.847,60,-176.373,0\C,76,1.52816,73,116.781,60,-50.1589,0\H,79,1.09641,76,124.166,73,43.9704,0\H,79,1.09737,76,110.152,73,162.391,0\C,79,1.50115,76,113.749,73,-82.8895,0\O,82,1.20865,79,121.596,76,-156.54,0\O,82,1.40803,79,114.521,76,18.6399,0\C,84,1.40586,82,115.725,79,167.881,0\H,85,1.09653,84,106.916,82,-30.3746,0\H,85,1.09683,84,114.388,82,-154.383,0\H,85,1.09707,84,109.997,82,80.328,0\H,72,2.33027,71,122.48,69,123.93,0\C,89,1.08532,72,171.319,71,19.333,0\C,90,1.41166,89,115.632,72,-57.2107,0\C,91,1.40797,90,114.731,89,-178.737,0\H,92,1.08664,91,117.873,90,-172.061,0\C,92,1.43477,91,124.432,90,0.555208,0\H,94,1.08575,92,119.973,91,177.395,0\C,94,1.41492,92,117.557,91,-2.347,0\H,96,1.0862,94,117.146,92,-175.473,0\C,96,1.39568,94,120.922,92,-0.61042,0\H,98,1.08599,96,126.064,94,-178.939,0\C,91,1.55266,90,123.847,89,-6.42708,0\C,100,1.50281,91,107.865,90,73.0567,0\H,101,1.09625,100,115.215,91,-51.1535,0\H,101,1.09706,100,103.32,91,-173.01,0\C,100,1.50558,91,119.615,90,-130.17,0\C,104,1.4609,100,62.2194,91,106.621,0\C,104,1.46592,100,124.674,91,-2.25756,0\C,106,1.39013,104,109.852,100,-146.541,0\C,107,1.40032,106,122.917,104,-148.813,0\C,108,1.36435,107,125.196,106,141.874,0\C,109,1.35747,108,109.666,107,-142.331,0\C,110,1.38866,109,121.568,108,138.296,0\C,111,1.39103,110,121.693,109,-0.15388,0\C,112,1.38974,111,111.753,110,-143.601,0\C,113,1.36675,112,106.133,111,-1.41934,0\C,113,1.40136,112,116.067,111,143.726,0\C,115,1.38261,113,123.549,112,-1.46037,0\C,115,1.38813,113,115.491,112,-140.363,0\C,117,1.36608,115,106.922,113,146.208,0\C,118,1.3901,117,110.91,115,2.70455,0\C,119,1.39578,118,119.418,117,-135.391,0\C,111,1.40168,110,121.583,109,-139.175,0\C,121,1.3592,111,124.101,110,-1.28717,0\C,116,1.40214,115,120.562,113,5.60463,0\C,109,1.4064,108,119.238,107,-0.75538,0\C,124,1.40674,109,120.795,108,-134.954,0\C,123,1.40868,116,118.884,115,-138.134,0\C,126,1.38136,123,108.328,116,138.068,0\C,106,1.40955,104,123.09,100,69.91,0\C,128,1.3849,106,117.839,104,7.35412,0\C,129,1.36891,128,107.623,106,143.911,0\C,130,1.40989,129,111.334,128,-0.625729,0\C,131,1.40011,130,121.64,129,-143.708,0\C,132,1.39224,131,120.352,130,138.309,0\C,133,1.3913,132,116.057,131,-5.583,0\C,132,1.40176,131,117.799,130,-0.980722,0\C,120,1.41189,119,122.416,118,-12.8058,0\C,136,1.3934,120,107.703,119,146.985,0\C,137,1.38602,136,122.757,120,-140.857,0\C,135,1.41258,132,122.212,131,-1.83357,0\C,126,1.41517,123,118.688,116,-0.665167,0\C,140,1.36502,126,123.385,123,142,0\C,141,1.37661,140,120.065,126,-4.93548,0\C,135,1.41601,132,106.786,131,143.816,0\C,143,1.38518,135,115.903,132,-143.626,0\C,144,1.37122,143,125.945,135,-3.70066,0\C,144,1.38476,143,116.611,135,139.696,0\C,145,1.40263,144,109.231,143,145.326,0\C,147,1.41012,145,106.948,144,-0.209714,0\C,145,1.41507,144,118.543,143,3.05061,0\C,149,1.39103,145,120.282,144,134.179,0\C,150,1.38171,149,119.925,145,1.90001,0\C,151,1.39104,150,121.33,149,-143.067,0\C,151,1.39726,150,121.828,149,-0.210723,0\C,153,1.38891,151,108.013,150,-142.751,0\C,154,1.3824,153,109.566,151,-5.48204,0\C,138,1.41707,137,115.592,136,6.95388,0\C,128,1.4172,106,121.437,104,144.278,0\C,157,1.37125,128,122.015,106,2.53985,0\C,156,1.41869,138,108.235,137,141.833,0\C,159,1.3846,156,110.816,138,-2.96289,0\C,159,1.41662,156,119.468,138,-151.18,0\C,161,1.42223,159,117.702,156,138.249,0\C,127,1.42403,126,117.888,123,-143.845,0\C,101,1.54302,100,117.336,91,66.7006,0\H,164,1.09717,101,105.821,100,-59.5747,0\H,164,1.09745,101,111.587,100,56.5897,0\C,164,1.56469,101,112.657,100,-179.896,0\H,167,1.09677,164,112.205,101,-64.8574,0\H,167,1.09782,164,113.747,101,49.2943,0\C,167,1.61993,164,112.507,101,169.976,0\O,170,1.192,167,120.627,164,114.096,0\O,170,1.31252,167,115.459,164,-59.9859,0\C,172,1.47733,170,121.58,167,171.01,0\H,173,1.09692,172,107.713,170,177.055,0\H,173,1.09728,172,114.604,170,-61.3962,0\H,173,1.09733,172,106.758,170,59.3719,0\\\@

 Total job time:  871.11s(wall), 7503.33s(cpu) 
 Sun Oct  7 05:32:18 2018

        *************************************************************
        *                                                           *
        *  Thank you very much for using Q-Chem.  Have a nice day.  *
        *                                                           *
        *************************************************************


