
Running Job 1 of 1 ./8/12.qcin
qchem ./8/12.qcin_6696.0 /tmpu/cab_g/afmv_a/scratch_qchem/qchem6696/ 1
/tmpu/appuserlic/qchem4.4/serial-multicore/exe/qcprog.exe_s ./8/12.qcin_6696.0 /tmpu/cab_g/afmv_a/scratch_qchem/qchem6696/
Check license passed

                  Welcome to Q-Chem
     A Quantum Leap Into The Future Of Chemistry


 Q-Chem 4.4, Q-Chem, Inc., Pleasanton, CA (2016)

 Y. Shao,  Z. Gan,  E. Epifanovsky,  A. T. B. Gilbert,  M. Wormit,  
 J. Kussmann,  A. W. Lange,  A. Behn,  J. Deng,  X. Feng,  D. Ghosh,  
 M. Goldey,  P. R. Horn,  L. D. Jacobson,  I. Kaliman,  F. Rob,  
 R. Z. Khaliullin,  T. Kus,  A. Landau,  J. Liu,  E. I. Proynov,  Y. M. Rhee,  
 R. M. Richard,  M. A. Rohrdanz,  R. P. Steele,  E. J. Sundstrom,  
 H. L. Woodcock III,  P. M. Zimmerman,  D. Zuev,  B. Albrecht,  E. Alguire,  
 B. Austin,  S. A. Baeppler,  G. J. O. Beran,  Y. A. Bernard,  E. Berquist,  
 K. Brandhorst,  K. B. Bravaya,  S. T. Brown,  D. Casanova,  C.-M. Chang,  
 Y. Chen,  S. H. Chien,  K. D. Closser,  M. P. Coons,  D. L. Crittenden,  
 S. Dasgupta,  M. Diedenhofen,  R. A. DiStasio Jr.,  H. Do,  A. D. Dutoi,  
 R. G. Edgar,  P.-T. Fang,  S. Fatehi,  Q. Feng,  L. Fusti-Molnar,  
 A. Ghysels,  A. Golubeva-Zadorozhnaya,  J. Gomes,  A. Gunina,  
 M. W. D. Hanson-Heine,  P. H. P. Harbach,  A. W. Hauser,  J. E. Herr,  
 E. G. Hohenstein,  Z. C. Holden,  K. Hui,  T.-C. Jagau,  H. Ji,  B. Kaduk,  
 K. Khistyaev,  Jaehoon Kim,  Jihan Kim,  R. A. King,  P. Klunzinger,  
 K. Koh,  D. Kosenkov,  T. Kowalczyk,  C. M. Krauter,  A. Kunitsa,  
 K. U. Lao,  A. Laurent,  K. V. Lawler,  J. Lee,  D. Lefrancois,  S. Lehtola,  
 S. V. Levchenko,  C. Y. Lin,  Y.-S. Lin,  F. Liu,  E. Livshits,  
 R. C. Lochan,  A. Luenser,  P. Manohar,  S. F. Manzer,  S.-P. Mao,  Y. Mao,  
 N. Mardirossian,  A. V. Marenich,  L. A. Martinez-Martinez,  S. A. Maurer,  
 N. J. Mayhall,  J.-M. Mewes,  A. F. Morrison,  K. Nanda,  T. S. Nguyen-Beck,  
 C. M. Oana,  R. Olivares-Amaya,  D. P. O'Neill,  J. A. Parkhill,  
 T. M. Perrine,  R. Peverati,  P. A. Pieniazek,  F. Plasser,  A. Prociuk,  
 D. R. Rehn,  E. Rosta,  N. J. Russ,  N. Sergueev,  S. M. Sharada,  
 S. Sharma,  D. W. Small,  A. Sodt,  T. Stauch,  T. Stein,  D. Stuck,  
 Y.-C. Su,  A. J. W. Thom,  T. Tsuchimochi,  L. Vogt,  O. Vydrov,  T. Wang,  
 M. A. Watson,  J. Wenzel,  A. White,  C. F. Williams,  V. Vanovschi,  
 K. Yao,  S. Yeganeh,  S. R. Yost,  Z.-Q. You,  I. Y. Zhang,  X. Zhang,  
 Y. Zhao,  B. R. Brooks,  G. K. L. Chan,  D. M. Chipman,  C. J. Cramer,  
 W. A. Goddard III,  M. S. Gordon,  W. J. Hehre,  A. Klamt,  
 H. F. Schaefer III,  M. W. Schmidt,  C. D. Sherrill,  D. G. Truhlar,  
 A. Warshel,  X. Xu,  A. Aspuru-Guzik,  R. Baer,  A. T. Bell,  N. A. Besley,  
 J.-D. Chai,  A. Dreuw,  B. D. Dunietz,  T. R. Furlani,  S. R. Gwaltney,  
 C.-P. Hsu,  Y. Jung,  J. Kong,  D. S. Lambrecht,  W. Liang,  C. Ochsenfeld,  
 V. A. Rassolov,  L. V. Slipchenko,  J. E. Subotnik,  T. Van Voorhis,  
 J. M. Herbert,  A. I. Krylov,  P. M. W. Gill,  M. Head-Gordon

 Contributors to earlier versions of Q-Chem not listed above: 
 R. D. Adamson,  J. Baker,  E. F. C. Byrd,  A. K. Chakraborty,  C.-L. Cheng,  
 H. Dachsel,  R. J. Doerksen,  G. Hawkins,  A. Heyden,  S. Hirata,  
 G. Kedziora,  F. J. Keil,  C. Kelley,  P. P. Korambath,  W. Kurlancheek,  
 A. M. Lee,  M. S. Lee,  D. Liotard,  I. Lotan,  P. E. Maslen,  N. Nair,  
 D. Neuhauser,  R. Olson,  B. Peters,  J. Ritchie,  N. E. Schultz,  
 N. Shenvi,  A. C. Simmonett,  K. S. Thanthiriwatte,  Q. Wu,  W. Zhang

 Please cite Q-Chem as follows:
 Y. Shao et al., Mol. Phys. 113, 184-215 (2015)
 DOI: 10.1080/00268976.2014.952696

 Q-Chem 4.4.2 for Intel X86 Linux

 Parts of Q-Chem use Armadillo 5.200.1 (Boston Tea Smuggler).
 http://arma.sourceforge.net/

 Q-Chem begins on Sun Oct  7 05:47:01 2018  

Host: 
0

     Scratch files written to /tmpu/cab_g/afmv_a/scratch_qchem/qchem6696//
 Dec716 11556_ 22328  22283 4050   
Processing $rem in /tmpu/appuserlic/qchem4.4/serial-multicore/config/preferences.
 MEM_TOTAL  2000 
FILE_GEOM_ORG=        593

Checking the input file for inconsistencies... 	...done.

--------------------------------------------------------------
User input:
--------------------------------------------------------------
$comment
SP
$end

$rem
MEM_STATIC 5000
MEM_TOTAL 20000
JOBTYPE SP
EXCHANGE B3LYP
BASIS 6-31g(d,p)
$end

$molecule
0 1
O          25.954000     15.916000     13.106000
C          24.746000     16.331000     13.837000
H          23.887000     16.047000     13.216000
H          24.697000     17.407000     14.046000
H          24.735000     15.863000     14.829000
O          25.307000     17.081000     11.367000
C          26.074000     16.303000     11.834000
C          27.256000     15.691000     11.152000
H          27.100000     14.606000     11.093000
H          28.061000     15.758000     11.895000
C          27.519000     16.287000      9.739000
H          27.230000     17.339000      9.849000
H          28.586000     16.269000      9.485000
C          26.594000     15.544000      8.753000
H          26.937000     14.504000      8.820000
H          25.572000     15.516000      9.152000
C          26.591000     15.988000      7.260000
C          27.697000     15.350000      6.463000
C          27.575000     14.055000      6.002000
H          26.625000     13.537000      6.091000
C          28.582000     13.460000      5.194000
H          28.516000     12.428000      4.862000
C          29.821000     14.079000      5.009000
H          30.591000     13.512000      4.494000
C          29.975000     15.358000      5.503000
H          30.874000     15.967000      5.485000
C          28.918000     16.002000      6.240000
H          29.027000     17.027000      6.581000
C          25.987000     20.128000      3.705000
C          25.021000     18.272000      2.574000
C          20.744000     19.366000      2.834000
C          23.746000     20.496000      8.256000
C          19.959000     17.232000      5.492000
C          25.996000     18.760000      3.416000
C          21.109000     19.608000      8.049000
C          22.646000     20.807000      2.324000
C          23.663000     15.469000      5.086000
C          23.416000     19.227000      8.654000
C          25.238000     16.179000      6.605000
C          22.966000     15.564000      6.263000
C          22.130000     17.412000      8.176000
C          20.151000     19.034000      7.157000
C          25.539000     16.654000      4.175000
C          19.722000     19.579000      4.824000
C          26.103000     17.347000      6.916000
C          25.533000     18.403000      7.831000
C          19.730000     18.195000      4.489000
C          22.629000     22.301000      5.490000
C          21.115000     21.418000      4.048000
C          22.280000     21.716000      3.314000
C          23.974000     20.423000      2.277000
C          25.839000     19.726000      7.353000
C          24.989000     15.878000      5.206000
C          24.028000     19.088000      1.960000
C          22.134000     18.776000      8.546000
C          24.792000     16.963000      3.030000
C          21.620000     15.974000      6.295000
C          24.711000     21.735000      6.573000
C          21.918000     19.623000      2.081000
C          23.901000     16.040000      7.165000
C          24.553000     21.861000      4.185000
C          21.217000     16.929000      7.271000
C          22.892000     15.636000      3.875000
C          20.677000     21.151000      6.384000
C          21.425000     20.877000      7.569000
C          21.550000     16.038000      3.941000
C          24.971000     20.764000      7.554000
C          24.294000     18.153000      8.394000
C          23.338000     22.073000      6.660000
C          26.609000     18.200000      5.769000
C          22.465000     17.284000      2.282000
C          23.482000     17.028000      8.105000
C          20.874000     16.178000      5.188000
C          25.301000     21.672000      5.332000
C          20.405000     18.090000      3.257000
C          24.926000     20.975000      3.206000
C          20.319000     20.279000      3.743000
C          23.480000     16.428000      2.832000
C          21.299000     17.012000      3.009000
C          26.339000     17.826000      4.414000
C          26.457000     19.616000      6.089000
C          21.265000     21.864000      5.365000
C          22.784000     18.542000      1.762000
C          20.199000     17.725000      6.769000
C          22.742000     21.289000      7.686000
C          19.842000     19.998000      6.162000
C          26.171000     20.593000      5.086000
C          23.236000     22.282000      4.185000
O          27.992000      8.250000      4.385000
C          28.426000      9.521000      4.969000
H          29.317000      9.894000      4.449000
H          28.663000      9.468000      6.039000
H          27.633000     10.239000      4.727000
O          26.200000      8.007000      5.816000
C          26.917000      7.598000      4.916000
C          26.531000      6.272000      4.243000
H          25.606000      5.879000      4.683000
H          27.296000      5.500000      4.389000
C          26.276000      6.354000      2.763000
H          27.224000      6.580000      2.259000
H          25.945000      5.343000      2.494000
C          25.209000      7.424000      2.448000
H          24.303000      6.993000      2.892000
H          25.420000      8.311000      3.059000
C          25.079000      7.694000      0.923000
C          24.335000      6.478000      0.263000
C          22.900000      6.389000      0.244000
H          22.216000      7.088000      0.717000
C          22.282000      5.296000     -0.413000
H          21.214000      5.252000     -0.607000
C          23.144000      4.269000     -0.806000
H          22.678000      3.426000     -1.307000
C          24.500000      4.262000     -0.607000
H          25.087000      3.352000     -0.698000
C          25.153000      5.353000     -0.018000
H          26.230000      5.335000      0.117000
C          28.263000      9.504000     -3.114000
C          25.979000     10.081000     -3.876000
C          26.199000     14.568000     -3.259000
C          28.920000     11.454000      1.565000
C          24.478000     14.497000     -0.196000
C          26.883000      9.197000     -3.197000
C          27.417000     13.825000      1.830000
C          27.762000     13.017000     -4.152000
C          23.422000     10.648000     -0.739000
C          27.687000     11.437000      2.287000
C          24.728000      9.070000      0.488000
C          23.584000     11.126000      0.618000
C          25.538000     12.251000      2.326000
C          26.528000     14.713000      1.130000
C          24.909000      9.203000     -2.029000
C          26.499000     15.475000     -1.211000
C          26.103000      8.589000      0.372000
C          27.176000      9.332000      1.178000
C          25.194000     15.054000     -1.322000
C          29.864000     13.250000     -1.324000
C          28.417000     14.563000     -2.380000
C          28.759000     13.553000     -3.305000
C          27.732000     11.614000     -4.318000
C          28.398000      9.344000      0.504000
C          24.191000      9.488000     -0.868000
C          26.407000     11.280000     -4.425000
C          26.929000     12.648000      2.401000
C          24.799000     10.057000     -3.108000
C          23.749000     12.533000      0.756000
C          29.932000     10.997000     -0.375000
C          26.516000     13.555000     -4.098000
C          24.461000     10.322000      1.298000
C          29.634000     11.369000     -2.774000
C          24.712000     13.078000      1.605000
C          23.286000     11.494000     -1.851000
C          28.456000     14.720000      0.048000
C          28.625000     13.878000      1.174000
C          23.402000     12.862000     -1.608000
C          29.234000     10.407000      0.730000
C          26.746000     10.350000      2.110000
C          30.002000     12.353000     -0.200000
C          26.845000      8.378000     -0.897000
C          24.361000     12.377000     -3.543000
C          25.450000     10.868000      2.111000
C          23.681000     13.391000     -0.363000
C          29.738000     10.458000     -1.674000
C          24.967000     14.480000     -2.591000
C          28.670000     10.725000     -3.660000
C          27.144000     15.100000     -2.373000
C          23.929000     11.142000     -3.037000
C          24.003000     13.410000     -2.710000
C          26.175000      8.572000     -2.110000
C          28.212000      8.811000     -0.797000
C          29.065000     14.369000     -1.161000
C          25.621000     12.451000     -4.256000
C          25.193000     14.268000      1.022000
C          29.387000     12.656000      1.015000
C          27.144000     15.294000      0.051000
C          28.949000      9.365000     -1.883000
C          29.676000     12.737000     -2.607000
$end

--------------------------------------------------------------
 ----------------------------------------------------------------
             Standard Nuclear Orientation (Angstroms)
    I     Atom           X                Y                Z
 ----------------------------------------------------------------
    1      O      -7.1974822730    -7.3997524186     0.7045668454
    2      C      -8.2435338213    -7.4500579668    -0.3294039037
    3      H      -7.8501341667    -6.9165329385    -1.2039127692
    4      H      -9.1935796493    -6.9917077457    -0.0274337072
    5      H      -8.5036013285    -8.4943032001    -0.5418322077
    6      O      -7.1577811857    -5.2137468281     0.5640023339
    7      C      -6.6786646251    -6.2071797717     1.0058171232
    8      C      -5.5205463127    -6.3011182929     1.9474802949
    9      H      -4.7041740713    -6.8335495608     1.4424106874
   10      H      -5.8382862119    -7.0410133991     2.6932413747
   11      C      -5.0387424185    -4.9130913693     2.4595352400
   12      H      -5.9663408908    -4.3329010344     2.5320972787
   13      H      -4.6179633296    -4.9790662928     3.4704364557
   14      C      -4.0909555542    -4.3370717231     1.3872612885
   15      H      -3.2684886853    -5.0627513451     1.3612740635
   16      H      -4.5556493612    -4.4221772548     0.3966626240
   17      C      -3.5081408575    -2.9086362743     1.6019545534
   18      C      -2.2776410540    -2.9085806862     2.4687643541
   19      C      -1.0480579356    -3.2519221964     1.9446727950
   20      H      -0.9363619052    -3.3885217335     0.8734073922
   21      C       0.1335353406    -3.1950533779     2.7330516805
   22      H       1.0990051111    -3.5040033245     2.3431516256
   23      C       0.0728254172    -2.9947677499     4.1146112964
   24      H       0.9974555362    -3.0958865779     4.6753680403
   25      C      -1.1574678821    -2.6941668095     4.6619781500
   26      H      -1.3933174028    -2.5495583308     5.7121540359
   27      C      -2.3440706921    -2.6553173026     3.8461236978
   28      H      -3.2996842647    -2.3677358540     4.2737761389
   29      C      -4.5816442182     2.3866941978     2.5763809108
   30      C      -2.7164780908     2.4545281534     1.1020651808
   31      C      -4.7063715597     3.8963199265    -2.5747167634
   32      C      -8.1836262093    -0.4504255537     0.3751123558
   33      C      -4.9184949410     0.7795674997    -4.1482487717
   34      C      -3.3720091733     1.8350650617     2.1433516342
   35      C      -8.0084186778    -0.1597830292    -2.3943625482
   36      C      -5.0301002591     4.6604810416    -0.2800615563
   37      C      -2.4700533388    -0.7899218621    -1.2268693263
   38      C      -7.5506068593    -1.4054863428    -0.3764263269
   39      C      -3.5676818962    -1.9601403308     0.4217319856
   40      C      -3.4291154446    -1.4956252011    -1.9068293799
   41      C      -6.1930210571    -1.7518115703    -2.1690569711
   42      C      -7.2534082992     0.4461257411    -3.4459032704
   43      C      -2.3606753536     0.1507947173     0.9769026160
   44      C      -6.3305130184     2.6954141558    -3.5595735306
   45      C      -4.4346034959    -1.7489138224     1.6104288780
   46      C      -5.9261873971    -1.7329245823     1.3819933073
   47      C      -5.0807910617     2.1711552528    -3.9967149649
   48      C      -8.1050186553     3.0203648832     0.0527699982
   49      C      -6.9101301190     4.0170728706    -1.5995204042
   50      C      -6.4091169672     4.4850279763    -0.3687528222
   51      C      -4.3996148908     4.1610795241     0.8452540993
   52      C      -6.5563295348    -0.6784509776     2.1326299060
   53      C      -2.5396861881    -0.9699120108     0.1525188760
   54      C      -3.1870213882     3.6394546317     0.4668965053
   55      C      -7.4463777972    -1.2693463105    -1.7289022765
   56      C      -2.0652318060     1.4068729124     0.4296406330
   57      C      -4.0741892819    -0.9653311447    -3.0397494822
   58      C      -7.8547174703     1.3471532757     1.7748853350
   59      C      -4.1606950573     4.3537898722    -1.3482207774
   60      C      -4.1219086672    -2.1595584966    -0.9100168952
   61      C      -6.5188067680     3.3368024048     1.7796747852
   62      C      -5.4879368010    -1.0947651622    -3.1473356684
   63      C      -2.0327850930     0.4432189048    -1.8408818101
   64      C      -8.2481798317     2.1311290445    -2.2101494659
   65      C      -8.5943256404     0.8631966919    -1.6521748891
   66      C      -2.6917954707     0.9412400802    -2.9742856352
   67      C      -7.6655799337    -0.0390866829     1.6509185282
   68      C      -6.3756331707    -2.0212411608     0.1054894698
   69      C      -8.4857512028     1.7997182996     0.5900126298
   70      C      -4.2526070049    -0.4825918378     2.4244067087
   71      C      -2.3946758995     2.7358823486    -1.6204019294
   72      C      -5.5421346916    -2.2380688384    -1.0200131040
   73      C      -3.7228231701     0.2009481630    -3.6227721506
   74      C      -6.9055833338     2.1470693372     2.3676995433
   75      C      -4.0855683091     2.9197563364    -3.3382302724
   76      C      -5.1622196574     3.5149806667     1.8820950882
   77      C      -6.0524914363     3.8010560813    -2.7138608533
   78      C      -1.8495005459     1.5733539783    -0.9748226375
   79      C      -2.9111947748     2.2884463307    -2.8431358585
   80      C      -3.2016445263     0.4365623081     2.1090743055
   81      C      -5.5510850895     0.1061674351     2.7372600009
   82      C      -8.0201754148     3.1974958275    -1.3714898985
   83      C      -2.9470070895     3.7833894068    -0.8771763784
   84      C      -6.0181551562    -0.0033907161    -3.8179430901
   85      C      -8.6664907152     0.6894297392    -0.2801256013
   86      C      -7.4402008415     1.8511571336    -3.3697630568
   87      C      -5.7373341671     1.5193689719     2.8397621831
   88      C      -7.1456663113     3.8915891278     0.6792254202
   89      O       4.4142160090    -5.3759277898     0.4822205419
   90      C       3.2005111194    -5.2178438662     1.2864486899
   91      H       3.4490341766    -4.8101110643     2.2740722276
   92      H       2.6384336647    -6.1472256822     1.4420005307
   93      H       2.6221339636    -4.4294146198     0.7896628316
   94      O       3.2957911835    -6.2111517196    -1.3534267272
   95      C       4.3256695474    -5.9066910570    -0.7720281887
   96      C       5.6467852182    -6.0374445681    -1.5451762364
   97      H       5.4544951331    -6.3853994482    -2.5677347553
   98      H       6.3182388027    -6.7742481115    -1.0882346402
   99      C       6.4348295101    -4.7644596391    -1.6888584019
  100      H       6.7975956485    -4.4664818305    -0.6971901335
  101      H       7.2834020837    -5.0475696832    -2.3243238142
  102      C       5.5718541439    -3.6529459171    -2.3232279811
  103      H       5.4101836442    -4.0301880272    -3.3407170669
  104      H       4.5781592946    -3.6807822049    -1.8580326592
  105      C       6.2754452051    -2.2677067743    -2.2845351392
  106      C       7.4215131958    -2.2604104434    -3.3589032904
  107      C       7.1625055181    -1.9520594910    -4.7392444486
  108      H       6.1845585668    -1.7635087291    -5.1731273482
  109      C       8.2437826900    -1.9074615761    -5.6541612227
  110      H       8.1448372342    -1.5237261426    -6.6656714371
  111      C       9.4613660220    -2.3879670044    -5.1654615572
  112      H      10.2943101828    -2.3606295658    -5.8613514115
  113      C       9.6634049795    -2.8736352681    -3.8998816121
  114      H      10.5425490555    -3.4595550278    -3.6454140723
  115      C       8.6336706184    -2.8742176492    -2.9494828503
  116      H       8.8176774702    -3.2488718220    -1.9473582426
  117      C       8.1437205132     1.1757865818     1.5053495397
  118      C       7.6402783757     2.6509197250    -0.4183856874
  119      C       3.9348459893     4.6609879286     1.2524388536
  120      C       3.9540530839    -1.5581419613     2.5539255040
  121      C       1.7004228684     2.6214729575    -0.5354601926
  122      C       8.1011132632     1.3975228599     0.1072953042
  123      C       1.6525158584    -0.0598321938     1.9144966649
  124      C       6.0192299276     4.1085151414     2.2505051928
  125      C       4.6833341179     1.1158953474    -2.7849629239
  126      C       3.2328709795    -1.8407435416     1.3531362973
  127      C       5.4243632001    -1.0595151210    -2.1371093964
  128      C       3.5274335879     0.2801236634    -2.5368567835
  129      C       2.0903886667    -0.8940264370    -0.4020784727
  130      C       1.2051086080     1.2087759621     1.4052569383
  131      C       6.9140773489     0.9544272297    -1.8046534400
  132      C       2.0636880332     3.4917458321     1.7408995205
  133      C       6.1813482744    -1.5709495477    -0.9965610964
  134      C       5.3790385494    -2.0407175189     0.2235336369
  135      C       2.1417640927     3.6528004931     0.3768788003
  136      C       4.6000473796     1.5103982615     4.1755991059
  137      C       3.9202192999     3.4344465585     3.2987947189
  138      C       5.3296667998     3.5071060773     3.3282453426
  139      C       7.1704258512     3.4495086290     1.7633467360
  140      C       6.0718897359    -1.7961126289     1.4100536245
  141      C       5.8168723536     0.3742741841    -2.4404471503
  142      C       7.1758408687     3.6616231401     0.4092388704
  143      C       2.0727480401    -1.0609806984     1.0366466862
  144      C       6.9085611186     2.3154205703    -1.5737341945
  145      C       2.4222071051     0.9310912093    -1.9199016183
  146      C       5.7287944958    -0.5327983347     3.4458651704
  147      C       5.2878030990     4.6702226675     1.2533214336
  148      C       3.9210740962    -0.9221494789    -2.0100442536
  149      C       6.8533271093     1.6387941593     3.4011277035
  150      C       1.7166381365     0.3413685599    -0.8712860417
  151      C       4.6980077881     2.5045592644    -2.5796504571
  152      C       2.3186671591     1.6025680584     3.2741796596
  153      C       2.3001417971     0.1972436216     3.1006255233
  154      C       3.5460651813     3.0624467156    -2.0267319980
  155      C       5.3294413734    -1.5706494775     2.5404861950
  156      C       3.9385569920    -2.0932526164     0.1135293358
  157      C       4.6168617689     0.0828388819     3.9546455044
  158      C       7.2948816238    -0.8694824357    -0.3084961499
  159      C       5.3263399532     4.0806527740    -1.1942602813
  160      C       3.2430005680    -1.4891909442    -0.9349227410
  161      C       2.4481518862     2.3157842537    -1.6462210725
  162      C       6.8874332935     0.2303286049     3.1446154227
  163      C       3.3005445216     4.3803363034     0.0315013804
  164      C       7.6559349328     2.2016571438     2.3203715134
  165      C       3.2120833373     4.0390633330     2.2780454772
  166      C       5.8433707316     3.0843166399    -2.0356154276
  167      C       3.9523664220     4.0973290435    -1.2268277105
  168      C       7.7368206885     0.3563611213    -0.8183024238
  169      C       7.2291236103    -1.0299204472     1.1184283499
  170      C       3.4694148160     2.2091518413     3.7875985378
  171      C       6.0054323365     4.3820725057     0.0504986031
  172      C       1.2923485993     1.3610270841     0.0048560030
  173      C       3.4971494245    -0.5542947737     3.4193288030
  174      C       1.5759579729     2.2406976945     2.2291903619
  175      C       7.6530763556    -0.0368245467     2.0476783712
  176      C       5.7306891919     2.2742572750     3.8879004790
 ----------------------------------------------------------------
 Molecular Point Group                 C1    NOp =  1
 Largest Abelian Subgroup              C1    NOp =  1
 Nuclear Repulsion Energy = 34884.8020443242 hartrees
 There are      462 alpha and      462 beta electrons
 Requested basis set is 6-31G(d,p)
 There are 676 shells and 2360 basis functions

 Total QAlloc Memory Limit  20000 MB
 Mega-Array Size      4888 MB
 MEM_STATIC part      5000 MB
 A cutoff of  1.0D-08 yielded  38175 shell pairs
 There are    534594 function pairs
 
 -------------------------------------------------------
 OpenMP Integral Computing Module                       
 Release: version 1.0, May 2013, Q-Chem Inc. Pittsburgh 
 -------------------------------------------------------
 Integral Job Info:
 Integral job number is                      11
 Integral operator is                         1
 short-range coefficients                     0
 long-range coefficients              100000000
 Omega coefficients                           0
 if combine SR and LR in K                    0
 Integral screening is                        0
 Integral computing path is                   2
 max size of driver memory is            800000
 size of driver memory is                593474
 size of scratch memory is              2260544
 max col of scratch BK array               1296
 max len of scratch array in speh3          155
 max len of scratch index in speh4           18
 max int batch size is                      520
 min int batch size is                       52
 fixed nKL is                                52
 max L of basis functions is                  2
 order of int derivative is                   0
 number of shells is                        676
 number of basis is                        2360
 number of cartesian basis is              2360
 number of contracted shell pairs         38175
 number of primitive shell pairs         115152
 maxK2 (contraction) of shell pair           36
 max number of K2 of shell pair               1
 max number of CS2 of shell pair           7274
 max number of PS2 of shell pair          34704
 mem total for path MDJ                 1519224
 -------------------------------------------------------
 Smallest overlap matrix eigenvalue = 2.51E-04

 Scale SEOQF with 1.000000e-02/1.000000e-02/1.000000e-02

 Standard Electronic Orientation quadrupole field applied
 Nucleus-field energy     =     0.0000001065 hartrees
 Guess from superposition of atomic densities
 Warning:  Energy on first SCF cycle will be non-variational
 A restricted hybrid HF-DFT SCF calculation will be
 performed using Pulay DIIS extrapolation
 Exchange:     0.2000 Hartree-Fock + 0.0800 Slater + 0.7200 B88
 Correlation:  0.1900 VWN1RPA + 0.8100 LYP
 Using SG-1 standard quadrature grid
 SCF converges when DIIS error is below 1.0E-05
 using 16 threads for integral computing 
 -------------------------------------------------------
 OpenMP BLAS3 based DFT computing Module                
 Release: version 1.0, May 2013, Q-Chem Inc. Pittsburgh 
 -------------------------------------------------------
 ---------------------------------------
  Cycle       Energy         DIIS Error
 ---------------------------------------
    1   -5858.5563868082      1.83E-02
    2   -5803.1424703623      1.29E-03
    3   -5802.4409180229      1.74E-03
    4   -5803.9931203659      6.37E-04
    5   -5804.2144706951      2.98E-04
    6   -5804.2740367521      1.27E-04
    7   -5804.2847177326      4.60E-05
    8   -5804.2857033274      2.88E-05
    9   -5804.2863271123      8.16E-06 Convergence criterion met
 ---------------------------------------
 SCF time:  CPU 7344.80 s  wall 848.45 s
 SCF   energy in the final basis set = -5804.2863271123
 Total energy in the final basis set = -5804.2863271123
 
 --------------------------------------------------------------
 
                    Orbital Energies (a.u.)
 --------------------------------------------------------------
 
 Alpha MOs
 -- Occupied --
-19.199 -19.190 -19.135 -19.133 -10.319 -10.311 -10.251 -10.249
-10.238 -10.237 -10.236 -10.234 -10.232 -10.232 -10.231 -10.230
-10.230 -10.227 -10.225 -10.224 -10.223 -10.223 -10.222 -10.222
-10.222 -10.221 -10.221 -10.221 -10.220 -10.220 -10.219 -10.219
-10.219 -10.219 -10.218 -10.218 -10.218 -10.217 -10.217 -10.217
-10.217 -10.217 -10.217 -10.217 -10.216 -10.216 -10.216 -10.216
-10.215 -10.215 -10.215 -10.215 -10.215 -10.215 -10.215 -10.215
-10.214 -10.214 -10.214 -10.214 -10.213 -10.213 -10.213 -10.213
-10.213 -10.213 -10.213 -10.213 -10.213 -10.212 -10.212 -10.212
-10.212 -10.212 -10.212 -10.211 -10.211 -10.211 -10.211 -10.211
-10.211 -10.211 -10.211 -10.211 -10.211 -10.210 -10.210 -10.210
-10.210 -10.210 -10.210 -10.210 -10.210 -10.209 -10.209 -10.209
-10.209 -10.209 -10.209 -10.209 -10.208 -10.208 -10.208 -10.208
-10.208 -10.208 -10.208 -10.208 -10.208 -10.208 -10.207 -10.207
-10.207 -10.207 -10.207 -10.207 -10.206 -10.206 -10.206 -10.206
-10.206 -10.206 -10.206 -10.206 -10.206 -10.205 -10.205 -10.205
-10.204 -10.204 -10.204 -10.203 -10.203 -10.203 -10.201 -10.200
-10.200 -10.200 -10.200 -10.199 -10.199 -10.198 -10.197 -10.197
-10.196 -10.196 -10.195 -10.194  -1.108  -1.091  -1.016  -1.010
 -0.983  -0.979  -0.968  -0.963  -0.962  -0.959  -0.957  -0.957
 -0.940  -0.931  -0.926  -0.923  -0.923  -0.922  -0.921  -0.919
 -0.917  -0.914  -0.897  -0.892  -0.890  -0.885  -0.882  -0.882
 -0.873  -0.870  -0.857  -0.853  -0.841  -0.838  -0.838  -0.836
 -0.836  -0.831  -0.822  -0.816  -0.812  -0.805  -0.798  -0.796
 -0.795  -0.794  -0.792  -0.790  -0.788  -0.785  -0.781  -0.780
 -0.768  -0.768  -0.768  -0.766  -0.766  -0.764  -0.763  -0.761
 -0.755  -0.746  -0.742  -0.739  -0.735  -0.729  -0.716  -0.715
 -0.713  -0.710  -0.710  -0.710  -0.709  -0.708  -0.708  -0.706
 -0.706  -0.703  -0.703  -0.703  -0.702  -0.700  -0.670  -0.669
 -0.659  -0.657  -0.656  -0.653  -0.647  -0.644  -0.631  -0.628
 -0.627  -0.624  -0.623  -0.622  -0.620  -0.617  -0.616  -0.614
 -0.614  -0.613  -0.613  -0.612  -0.610  -0.608  -0.608  -0.607
 -0.606  -0.606  -0.602  -0.597  -0.569  -0.565  -0.562  -0.560
 -0.560  -0.558  -0.557  -0.556  -0.554  -0.553  -0.551  -0.549
 -0.538  -0.534  -0.532  -0.529  -0.528  -0.527  -0.523  -0.522
 -0.520  -0.518  -0.517  -0.516  -0.515  -0.514  -0.513  -0.510
 -0.509  -0.506  -0.503  -0.502  -0.493  -0.491  -0.487  -0.486
 -0.485  -0.481  -0.480  -0.480  -0.479  -0.477  -0.474  -0.472
 -0.471  -0.471  -0.469  -0.468  -0.467  -0.466  -0.466  -0.465
 -0.463  -0.462  -0.461  -0.460  -0.460  -0.459  -0.458  -0.457
 -0.456  -0.455  -0.453  -0.449  -0.448  -0.446  -0.444  -0.443
 -0.442  -0.441  -0.438  -0.438  -0.436  -0.435  -0.435  -0.433
 -0.430  -0.429  -0.427  -0.426  -0.424  -0.424  -0.423  -0.423
 -0.421  -0.420  -0.419  -0.418  -0.417  -0.416  -0.416  -0.415
 -0.414  -0.414  -0.413  -0.413  -0.411  -0.411  -0.410  -0.409
 -0.408  -0.407  -0.407  -0.402  -0.401  -0.400  -0.396  -0.396
 -0.393  -0.392  -0.389  -0.388  -0.388  -0.386  -0.386  -0.381
 -0.381  -0.377  -0.374  -0.372  -0.370  -0.369  -0.366  -0.365
 -0.364  -0.362  -0.361  -0.361  -0.360  -0.358  -0.357  -0.356
 -0.355  -0.354  -0.352  -0.352  -0.351  -0.350  -0.349  -0.349
 -0.348  -0.347  -0.347  -0.346  -0.344  -0.344  -0.344  -0.343
 -0.340  -0.339  -0.339  -0.337  -0.336  -0.334  -0.334  -0.332
 -0.331  -0.329  -0.328  -0.326  -0.325  -0.324  -0.322  -0.322
 -0.309  -0.309  -0.303  -0.303  -0.289  -0.281  -0.273  -0.272
 -0.270  -0.268  -0.267  -0.265  -0.265  -0.263  -0.263  -0.260
 -0.259  -0.258  -0.258  -0.257  -0.257  -0.256  -0.253  -0.250
 -0.249  -0.248  -0.243  -0.243  -0.222  -0.215  -0.211  -0.210
 -0.208  -0.206  -0.205  -0.201  -0.198  -0.196
 -- Virtual --
 -0.123  -0.121  -0.116  -0.114  -0.104  -0.101  -0.078  -0.072
 -0.070  -0.066  -0.059  -0.055  -0.049  -0.048  -0.026  -0.023
 -0.019  -0.018  -0.018  -0.017  -0.016  -0.015  -0.012  -0.011
 -0.011  -0.009  -0.008  -0.005  -0.004  -0.001   0.004   0.006
  0.006   0.019   0.037   0.039   0.040   0.047   0.047   0.049
  0.051   0.052   0.053   0.060   0.062   0.063   0.066   0.068
  0.071   0.072   0.077   0.078   0.082   0.084   0.085   0.090
  0.091   0.095   0.098   0.100   0.101   0.105   0.106   0.108
  0.110   0.112   0.113   0.115   0.116   0.118   0.119   0.123
  0.123   0.123   0.129   0.130   0.133   0.133   0.135   0.136
  0.140   0.141   0.146   0.148   0.150   0.153   0.154   0.156
  0.158   0.160   0.164   0.165   0.166   0.166   0.167   0.168
  0.170   0.172   0.178   0.179   0.180   0.180   0.181   0.184
  0.185   0.186   0.186   0.187   0.191   0.192   0.195   0.195
  0.197   0.199   0.200   0.202   0.203   0.204   0.208   0.209
  0.210   0.212   0.214   0.216   0.218   0.218   0.220   0.221
  0.223   0.224   0.225   0.226   0.227   0.228   0.229   0.230
  0.232   0.234   0.236   0.238   0.239   0.242   0.244   0.245
  0.246   0.248   0.250   0.252   0.256   0.256   0.259   0.263
  0.267   0.269   0.273   0.274   0.276   0.277   0.279   0.282
  0.283   0.287   0.289   0.292   0.295   0.301   0.305   0.309
  0.310   0.311   0.314   0.315   0.316   0.318   0.320   0.321
  0.321   0.324   0.325   0.326   0.328   0.329   0.330   0.336
  0.337   0.338   0.338   0.340   0.346   0.346   0.349   0.352
  0.354   0.356   0.362   0.366   0.374   0.379   0.380   0.391
  0.394   0.399   0.401   0.403   0.404   0.407   0.409   0.410
  0.412   0.413   0.413   0.415   0.419   0.421   0.426   0.430
  0.431   0.432   0.435   0.436   0.438   0.443   0.443   0.447
  0.452   0.453   0.455   0.459   0.461   0.462   0.462   0.467
  0.467   0.470   0.472   0.473   0.474   0.476   0.478   0.479
  0.480   0.481   0.483   0.484   0.485   0.485   0.487   0.487
  0.488   0.491   0.492   0.494   0.495   0.496   0.496   0.497
  0.498   0.499   0.500   0.502   0.503   0.504   0.504   0.505
  0.507   0.509   0.510   0.510   0.513   0.513   0.513   0.514
  0.515   0.516   0.517   0.518   0.519   0.519   0.520   0.520
  0.522   0.523   0.523   0.524   0.525   0.526   0.526   0.527
  0.528   0.528   0.529   0.531   0.532   0.532   0.533   0.534
  0.535   0.536   0.538   0.539   0.540   0.540   0.541   0.542
  0.542   0.543   0.544   0.545   0.545   0.547   0.547   0.547
  0.548   0.549   0.550   0.551   0.551   0.552   0.553   0.554
  0.554   0.555   0.556   0.556   0.557   0.559   0.559   0.560
  0.561   0.562   0.563   0.564   0.565   0.565   0.566   0.567
  0.567   0.568   0.568   0.569   0.570   0.571   0.573   0.574
  0.575   0.576   0.576   0.577   0.578   0.579   0.579   0.580
  0.581   0.581   0.583   0.583   0.584   0.584   0.585   0.587
  0.587   0.588   0.590   0.590   0.591   0.592   0.593   0.593
  0.594   0.595   0.596   0.597   0.598   0.599   0.600   0.601
  0.602   0.603   0.604   0.606   0.607   0.608   0.611   0.611
  0.611   0.613   0.614   0.615   0.616   0.617   0.618   0.619
  0.619   0.621   0.622   0.624   0.625   0.626   0.626   0.628
  0.629   0.629   0.631   0.633   0.635   0.635   0.635   0.637
  0.637   0.639   0.639   0.640   0.641   0.642   0.643   0.643
  0.643   0.645   0.647   0.649   0.649   0.650   0.651   0.653
  0.654   0.655   0.655   0.657   0.658   0.659   0.661   0.662
  0.662   0.664   0.664   0.665   0.666   0.666   0.667   0.668
  0.669   0.669   0.669   0.670   0.671   0.672   0.673   0.673
  0.673   0.675   0.676   0.676   0.677   0.678   0.681   0.682
  0.683   0.684   0.685   0.686   0.687   0.687   0.690   0.691
  0.692   0.693   0.694   0.695   0.696   0.697   0.698   0.699
  0.700   0.701   0.702   0.703   0.705   0.705   0.707   0.708
  0.708   0.710   0.712   0.713   0.714   0.716   0.718   0.718
  0.719   0.721   0.722   0.723   0.723   0.725   0.726   0.726
  0.729   0.731   0.732   0.733   0.734   0.735   0.736   0.737
  0.737   0.740   0.741   0.742   0.744   0.745   0.747   0.750
  0.750   0.752   0.753   0.754   0.755   0.756   0.757   0.758
  0.759   0.761   0.762   0.764   0.765   0.766   0.767   0.768
  0.771   0.771   0.773   0.774   0.775   0.776   0.779   0.779
  0.781   0.781   0.782   0.784   0.785   0.787   0.787   0.791
  0.792   0.793   0.794   0.795   0.796   0.798   0.798   0.799
  0.800   0.801   0.802   0.803   0.805   0.805   0.806   0.807
  0.808   0.809   0.810   0.810   0.811   0.813   0.813   0.814
  0.815   0.816   0.816   0.817   0.818   0.818   0.820   0.821
  0.822   0.822   0.823   0.824   0.825   0.826   0.827   0.828
  0.829   0.830   0.831   0.832   0.833   0.835   0.835   0.837
  0.839   0.841   0.843   0.844   0.846   0.847   0.848   0.852
  0.854   0.856   0.858   0.860   0.862   0.866   0.868   0.871
  0.872   0.874   0.876   0.877   0.881   0.882   0.883   0.885
  0.889   0.890   0.895   0.897   0.898   0.899   0.908   0.911
  0.914   0.916   0.919   0.920   0.925   0.928   0.929   0.931
  0.933   0.934   0.935   0.937   0.938   0.938   0.940   0.942
  0.943   0.943   0.944   0.945   0.947   0.949   0.950   0.952
  0.954   0.959   0.961   0.963   0.966   0.966   0.970   0.975
  0.976   0.978   0.983   0.986   0.990   0.991   0.993   0.995
  0.995   0.998   1.002   1.003   1.005   1.007   1.010   1.012
  1.013   1.015   1.016   1.017   1.020   1.021   1.021   1.025
  1.026   1.027   1.029   1.029   1.030   1.033   1.034   1.035
  1.037   1.038   1.041   1.042   1.044   1.045   1.047   1.049
  1.049   1.052   1.055   1.056   1.056   1.058   1.059   1.062
  1.062   1.063   1.064   1.066   1.068   1.069   1.070   1.072
  1.074   1.075   1.078   1.079   1.081   1.082   1.084   1.085
  1.086   1.087   1.090   1.091   1.096   1.096   1.098   1.100
  1.102   1.104   1.106   1.107   1.112   1.114   1.115   1.117
  1.119   1.120   1.123   1.124   1.125   1.126   1.133   1.133
  1.135   1.137   1.141   1.142   1.144   1.146   1.147   1.149
  1.150   1.152   1.153   1.154   1.157   1.158   1.160   1.161
  1.167   1.167   1.170   1.171   1.172   1.173   1.176   1.176
  1.177   1.178   1.180   1.181   1.182   1.184   1.185   1.187
  1.190   1.191   1.194   1.195   1.196   1.198   1.200   1.205
  1.206   1.208   1.210   1.211   1.214   1.216   1.216   1.220
  1.224   1.228   1.234   1.234   1.240   1.243   1.246   1.247
  1.248   1.251   1.252   1.253   1.256   1.258   1.260   1.261
  1.263   1.265   1.267   1.269   1.272   1.274   1.276   1.278
  1.279   1.282   1.284   1.285   1.287   1.289   1.289   1.292
  1.293   1.296   1.297   1.300   1.302   1.305   1.306   1.310
  1.312   1.318   1.321   1.321   1.324   1.326   1.327   1.333
  1.335   1.337   1.339   1.339   1.342   1.346   1.347   1.348
  1.349   1.352   1.353   1.356   1.361   1.363   1.364   1.366
  1.368   1.370   1.372   1.374   1.376   1.381   1.382   1.384
  1.385   1.389   1.392   1.393   1.395   1.398   1.400   1.402
  1.405   1.408   1.411   1.414   1.418   1.423   1.423   1.428
  1.430   1.434   1.436   1.439   1.440   1.442   1.448   1.449
  1.450   1.454   1.456   1.458   1.462   1.463   1.465   1.468
  1.468   1.469   1.471   1.473   1.475   1.477   1.477   1.479
  1.480   1.482   1.485   1.486   1.491   1.493   1.495   1.496
  1.501   1.503   1.505   1.509   1.510   1.514   1.519   1.521
  1.524   1.525   1.528   1.532   1.534   1.534   1.539   1.543
  1.544   1.546   1.549   1.551   1.552   1.553   1.556   1.558
  1.559   1.562   1.564   1.566   1.569   1.571   1.575   1.576
  1.577   1.578   1.581   1.583   1.585   1.587   1.588   1.591
  1.595   1.597   1.602   1.604   1.610   1.613   1.620   1.627
  1.627   1.631   1.633   1.637   1.639   1.642   1.644   1.649
  1.654   1.655   1.658   1.662   1.664   1.666   1.672   1.675
  1.679   1.681   1.684   1.689   1.692   1.697   1.698   1.701
  1.703   1.706   1.709   1.711   1.713   1.715   1.716   1.717
  1.720   1.720   1.724   1.725   1.727   1.729   1.731   1.733
  1.734   1.735   1.737   1.739   1.740   1.743   1.743   1.745
  1.745   1.747   1.749   1.750   1.753   1.755   1.756   1.756
  1.758   1.760   1.761   1.765   1.765   1.767   1.768   1.769
  1.770   1.771   1.772   1.774   1.774   1.776   1.777   1.778
  1.779   1.780   1.782   1.783   1.784   1.784   1.787   1.788
  1.789   1.790   1.793   1.794   1.796   1.797   1.799   1.799
  1.801   1.802   1.804   1.804   1.805   1.806   1.808   1.809
  1.810   1.812   1.814   1.817   1.817   1.820   1.822   1.824
  1.826   1.826   1.832   1.833   1.835   1.840   1.845   1.845
  1.847   1.850   1.851   1.853   1.856   1.857   1.859   1.859
  1.861   1.862   1.865   1.866   1.868   1.868   1.869   1.870
  1.874   1.875   1.876   1.877   1.878   1.880   1.882   1.885
  1.887   1.890   1.891   1.893   1.897   1.900   1.902   1.904
  1.908   1.912   1.913   1.916   1.918   1.919   1.922   1.922
  1.926   1.927   1.929   1.932   1.934   1.937   1.939   1.939
  1.941   1.942   1.945   1.945   1.948   1.951   1.952   1.954
  1.957   1.958   1.960   1.963   1.963   1.964   1.965   1.969
  1.971   1.974   1.976   1.977   1.979   1.980   1.983   1.984
  1.986   1.987   1.990   1.991   1.992   1.994   1.996   1.997
  1.999   2.000   2.000   2.002   2.003   2.004   2.005   2.007
  2.009   2.011   2.011   2.013   2.014   2.016   2.016   2.018
  2.019   2.021   2.022   2.022   2.024   2.024   2.026   2.028
  2.028   2.029   2.030   2.032   2.032   2.034   2.035   2.036
  2.038   2.038   2.040   2.041   2.042   2.043   2.044   2.044
  2.046   2.048   2.048   2.051   2.052   2.053   2.054   2.056
  2.057   2.059   2.060   2.061   2.061   2.062   2.065   2.066
  2.067   2.068   2.069   2.070   2.072   2.073   2.075   2.077
  2.078   2.078   2.081   2.083   2.083   2.084   2.086   2.087
  2.090   2.091   2.093   2.094   2.097   2.098   2.104   2.106
  2.107   2.109   2.112   2.115   2.115   2.117   2.118   2.120
  2.125   2.129   2.131   2.135   2.137   2.141   2.143   2.147
  2.150   2.151   2.155   2.159   2.162   2.167   2.169   2.174
  2.177   2.187   2.189   2.199   2.203   2.205   2.206   2.207
  2.211   2.217   2.221   2.222   2.223   2.227   2.229   2.232
  2.237   2.239   2.241   2.244   2.246   2.248   2.249   2.251
  2.252   2.253   2.257   2.259   2.260   2.262   2.265   2.267
  2.268   2.270   2.272   2.273   2.274   2.275   2.278   2.280
  2.283   2.286   2.289   2.292   2.293   2.295   2.298   2.300
  2.303   2.305   2.307   2.310   2.312   2.314   2.316   2.318
  2.324   2.325   2.326   2.329   2.330   2.333   2.335   2.336
  2.337   2.343   2.345   2.349   2.350   2.354   2.356   2.358
  2.359   2.360   2.363   2.365   2.366   2.368   2.368   2.371
  2.373   2.375   2.376   2.378   2.380   2.381   2.382   2.384
  2.385   2.389   2.390   2.391   2.394   2.396   2.397   2.398
  2.400   2.403   2.403   2.406   2.408   2.409   2.410   2.411
  2.414   2.415   2.417   2.418   2.419   2.420   2.423   2.425
  2.426   2.429   2.431   2.433   2.442   2.444   2.447   2.448
  2.451   2.453   2.457   2.458   2.459   2.461   2.463   2.464
  2.467   2.468   2.469   2.472   2.473   2.475   2.478   2.482
  2.483   2.484   2.485   2.488   2.489   2.491   2.493   2.493
  2.496   2.498   2.501   2.502   2.504   2.507   2.509   2.510
  2.512   2.513   2.514   2.515   2.517   2.520   2.521   2.525
  2.526   2.530   2.530   2.532   2.533   2.535   2.536   2.540
  2.541   2.543   2.546   2.550   2.551   2.559   2.563   2.567
  2.569   2.572   2.573   2.577   2.578   2.581   2.582   2.586
  2.589   2.593   2.596   2.599   2.601   2.603   2.605   2.607
  2.608   2.609   2.611   2.613   2.616   2.617   2.618   2.619
  2.621   2.624   2.626   2.626   2.629   2.631   2.632   2.633
  2.636   2.638   2.639   2.641   2.644   2.646   2.647   2.649
  2.650   2.652   2.653   2.656   2.657   2.658   2.659   2.660
  2.662   2.664   2.664   2.665   2.669   2.670   2.670   2.673
  2.674   2.675   2.678   2.679   2.683   2.685   2.686   2.687
  2.689   2.691   2.695   2.696   2.697   2.699   2.704   2.709
  2.710   2.713   2.715   2.718   2.720   2.720   2.725   2.726
  2.728   2.730   2.732   2.737   2.739   2.742   2.743   2.748
  2.749   2.751   2.754   2.756   2.757   2.759   2.761   2.762
  2.763   2.767   2.767   2.769   2.771   2.773   2.774   2.777
  2.779   2.779   2.782   2.785   2.786   2.789   2.791   2.793
  2.796   2.804   2.804   2.808   2.816   2.819   2.823   2.828
  2.832   2.833   2.834   2.841   2.842   2.843   2.844   2.845
  2.849   2.853   2.855   2.856   2.858   2.862   2.862   2.864
  2.868   2.870   2.872   2.874   2.875   2.876   2.879   2.882
  2.882   2.886   2.888   2.890   2.892   2.894   2.894   2.897
  2.898   2.899   2.900   2.904   2.904   2.905   2.907   2.908
  2.909   2.909   2.912   2.914   2.916   2.917   2.918   2.923
  2.923   2.925   2.926   2.929   2.931   2.934   2.936   2.937
  2.939   2.940   2.944   2.947   2.948   2.950   2.955   2.957
  2.962   2.966   2.968   2.973   2.975   2.977   2.982   2.984
  2.984   2.991   2.993   2.997   2.999   2.999   3.002   3.005
  3.008   3.010   3.011   3.016   3.017   3.020   3.024   3.027
  3.027   3.030   3.031   3.038   3.040   3.042   3.044   3.046
  3.047   3.050   3.051   3.054   3.059   3.059   3.064   3.066
  3.068   3.072   3.077   3.081   3.084   3.092   3.093   3.099
  3.110   3.125   3.128   3.131   3.134   3.137   3.153   3.155
  3.160   3.164   3.172   3.178   3.180   3.183   3.186   3.190
  3.192   3.197   3.203   3.216   3.219   3.234   3.242   3.246
  3.251   3.259   3.266   3.271   3.278   3.284   3.289   3.290
  3.301   3.305   3.313   3.314   3.315   3.317   3.319   3.327
  3.334   3.336   3.338   3.343   3.350   3.354   3.385   3.387
  3.394   3.398   3.405   3.424   3.428   3.432   3.440   3.442
  3.450   3.460   3.466   3.477   3.479   3.483   3.488   3.496
  3.503   3.506   3.509   3.515   3.520   3.525   3.542   3.554
  3.556   3.566   3.577   3.580   3.584   3.597   3.607   3.609
  3.616   3.617   3.687   3.700   3.832   3.872   4.017   4.032
  4.064   4.071   4.077   4.086   4.089   4.091   4.101   4.102
  4.107   4.108   4.109   4.111   4.113   4.116   4.117   4.125
  4.128   4.133   4.139   4.142   4.148   4.149   4.153   4.153
  4.155   4.163   4.164   4.170   4.173   4.174   4.185   4.188
  4.189   4.192   4.199   4.203   4.216   4.217   4.231   4.241
  4.245   4.248   4.248   4.249   4.253   4.255   4.258   4.260
  4.265   4.274   4.280   4.282   4.285   4.287   4.292   4.298
  4.303   4.306   4.317   4.328   4.380   4.386   4.392   4.394
  4.396   4.399   4.406   4.408   4.409   4.412   4.415   4.417
  4.421   4.424   4.426   4.435   4.439   4.443   4.461   4.470
  4.479   4.491   4.498   4.515   4.534   4.537   4.543   4.554
  4.561   4.565   4.626   4.628   4.629   4.635   4.641   4.644
  4.661   4.676   4.679   4.692   4.695   4.696   4.698   4.700
  4.702   4.710   4.713   4.715   4.745   4.753   4.808   4.817
  4.827   4.852   4.862   4.867   4.869   4.871   4.890   4.897
  4.901   4.905   4.954   4.969   4.977   4.978   4.980   4.983
  4.987   4.994   5.003   5.006   5.166   5.170   5.179   5.192
  5.196   5.202   5.207   5.224   5.325   5.333   5.344   5.351
  5.357   5.366
 --------------------------------------------------------------
 
          Ground-State Mulliken Net Atomic Charges

     Atom                 Charge (a.u.)
  ----------------------------------------
      1 O                    -0.472813
      2 C                    -0.084747
      3 H                     0.133697
      4 H                     0.131632
      5 H                     0.124415
      6 O                    -0.469599
      7 C                     0.611860
      8 C                    -0.283639
      9 H                     0.133149
     10 H                     0.133026
     11 C                    -0.177943
     12 H                     0.127544
     13 H                     0.102460
     14 C                    -0.184635
     15 H                     0.106231
     16 H                     0.121123
     17 C                     0.010979
     18 C                     0.112294
     19 C                    -0.122516
     20 H                     0.091052
     21 C                    -0.090836
     22 H                     0.079550
     23 C                    -0.080887
     24 H                     0.093500
     25 C                    -0.088793
     26 H                     0.089688
     27 C                    -0.123021
     28 H                     0.091140
     29 C                    -0.045836
     30 C                     0.025486
     31 C                     0.022475
     32 C                    -0.002901
     33 C                    -0.029305
     34 C                     0.005522
     35 C                    -0.011623
     36 C                    -0.014607
     37 C                    -0.003432
     38 C                     0.006916
     39 C                    -0.081626
     40 C                     0.016075
     41 C                    -0.013824
     42 C                    -0.002610
     43 C                     0.008110
     44 C                     0.000815
     45 C                    -0.065166
     46 C                     0.013143
     47 C                    -0.022317
     48 C                    -0.012342
     49 C                    -0.002935
     50 C                     0.007408
     51 C                     0.008708
     52 C                     0.002873
     53 C                     0.052811
     54 C                     0.025710
     55 C                    -0.002303
     56 C                    -0.009102
     57 C                     0.015383
     58 C                    -0.006021
     59 C                    -0.013928
     60 C                     0.008362
     61 C                     0.036266
     62 C                    -0.012767
     63 C                    -0.026441
     64 C                    -0.006417
     65 C                     0.009175
     66 C                     0.003544
     67 C                     0.002785
     68 C                     0.059257
     69 C                    -0.010342
     70 C                     0.008461
     71 C                     0.014240
     72 C                    -0.023245
     73 C                    -0.001915
     74 C                     0.014913
     75 C                    -0.001496
     76 C                    -0.003210
     77 C                     0.005502
     78 C                    -0.039454
     79 C                     0.016406
     80 C                    -0.010316
     81 C                    -0.002149
     82 C                     0.006509
     83 C                    -0.027302
     84 C                     0.044142
     85 C                     0.000727
     86 C                    -0.020157
     87 C                    -0.018753
     88 C                    -0.019374
     89 O                    -0.477267
     90 C                    -0.084099
     91 H                     0.127399
     92 H                     0.133666
     93 H                     0.134385
     94 O                    -0.473209
     95 C                     0.598347
     96 C                    -0.245558
     97 H                     0.130083
     98 H                     0.118758
     99 C                    -0.191195
    100 H                     0.108589
    101 H                     0.110739
    102 C                    -0.187211
    103 H                     0.108306
    104 H                     0.119735
    105 C                     0.027058
    106 C                     0.059694
    107 C                    -0.110848
    108 H                     0.100264
    109 C                    -0.083256
    110 H                     0.102045
    111 C                    -0.078148
    112 H                     0.083286
    113 C                    -0.090995
    114 H                     0.089002
    115 C                    -0.092397
    116 H                     0.104229
    117 C                    -0.011519
    118 C                     0.003146
    119 C                    -0.005705
    120 C                     0.007226
    121 C                    -0.012512
    122 C                    -0.001779
    123 C                     0.030802
    124 C                     0.001478
    125 C                    -0.004879
    126 C                    -0.066152
    127 C                    -0.124382
    128 C                    -0.026512
    129 C                    -0.046862
    130 C                    -0.000426
    131 C                     0.032669
    132 C                     0.001626
    133 C                    -0.068692
    134 C                     0.039560
    135 C                    -0.011030
    136 C                    -0.005495
    137 C                    -0.005149
    138 C                    -0.013914
    139 C                     0.010513
    140 C                     0.020819
    141 C                     0.052265
    142 C                    -0.009735
    143 C                     0.013716
    144 C                     0.009463
    145 C                    -0.012594
    146 C                    -0.016344
    147 C                     0.011804
    148 C                     0.067049
    149 C                    -0.006586
    150 C                     0.023169
    151 C                    -0.021023
    152 C                    -0.003893
    153 C                    -0.012626
    154 C                     0.020186
    155 C                    -0.010894
    156 C                    -0.025848
    157 C                     0.000887
    158 C                     0.030941
    159 C                    -0.011091
    160 C                     0.033124
    161 C                     0.028534
    162 C                     0.017325
    163 C                     0.008524
    164 C                    -0.011827
    165 C                     0.006256
    166 C                    -0.008300
    167 C                    -0.010473
    168 C                    -0.044230
    169 C                     0.005009
    170 C                     0.021763
    171 C                    -0.005595
    172 C                    -0.004035
    173 C                    -0.012733
    174 C                    -0.003892
    175 C                    -0.002028
    176 C                     0.007081
  ----------------------------------------
  Sum of atomic charges =     0.000000

 -----------------------------------------------------------------
                    Cartesian Multipole Moments
 -----------------------------------------------------------------
    Charge (ESU x 10^10)
                 0.0000
    Dipole Moment (Debye)
         X       2.6022      Y      -5.1718      Z       0.4366
       Tot       5.8060
    Quadrupole Moments (Debye-Ang)
        XX    -783.1881     XY       3.8690     YY    -791.4350
        XZ     -15.9909     YZ      -5.5892     ZZ    -791.2751
    Octopole Moments (Debye-Ang^2)
       XXX     201.3392    XXY    -479.3042    XYY    -122.1000
       YYY    -415.4740    XXZ    -149.6338    XYZ      19.6716
       YYZ      44.6018    XZZ      78.7822    YZZ    -143.6497
       ZZZ     -45.9763
    Hexadecapole Moments (Debye-Ang^3)
      XXXX -142999.3394   XXXY     340.4573   XXYY  -29171.8861
      XYYY    1540.1507   YYYY  -41549.6748   XXXZ   -1647.9031
      XXYZ     645.1306   XYYZ      33.7190   YYYZ    -185.2740
      XXZZ  -27830.6755   XYZZ      67.6381   YYZZ  -11387.7189
      XZZZ   -1287.1759   YZZZ     -93.5909   ZZZZ  -25474.7560
 -----------------------------------------------------------------
Archival summary:
1\1\mn366\SP\ProcedureUnspecified\6-31G**\428\afmv_a\SunOct706:01:262018SunOct706:01:262018\0\\#,ProcedureUnspecified,6-31G**,\\0,1\C\C,1,1.40973\C,2,1.37333,1,121.347\C,2,1.3947,1,108.282,3,144.814,0\C,3,1.40238,2,118.401,1,136.291,0\C,5,1.39184,3,121.4,2,6.7466,0\C,6,1.37038,5,120.96,3,-3.74071,0\C,5,1.39569,3,107.93,2,-139.373,0\C,1,1.41135,2,123.866,3,0.472519,0\C,9,1.37159,1,119.88,2,-140.875,0\C,4,1.41172,2,106.157,1,-1.50771,0\C,11,1.37344,4,111.413,2,4.87563,0\C,11,1.3812,4,119.435,2,-146.941,0\C,13,1.36964,11,118.906,4,144.702,0\C,14,1.37446,13,107.531,11,-139.625,0\C,13,1.39425,11,123.346,4,5.38477,0\C,16,1.39426,13,110.953,11,137.343,0\C,17,1.39254,16,121.884,13,-132.186,0\C,18,1.38046,17,119.468,16,-8.15456,0\C,19,1.39451,18,118.9,17,3.07733,0\C,20,1.39771,19,121.987,18,3.52777,0\C,18,1.40812,17,122.553,16,141.728,0\C,22,1.38643,18,119.302,17,-9.90374,0\C,23,1.37063,22,118.572,18,-134.586,0\C,24,1.4131,23,105.762,22,144.578,0\C,25,1.35826,24,112.238,23,-2.4751,0\C,26,1.35299,25,122.422,24,-141.129,0\C,27,1.40037,26,121.243,25,1.39754,0\C,28,1.3809,27,108.685,26,145.617,0\C,29,1.37571,28,106.982,27,-6.00907,0\C,28,1.38165,27,118.092,26,-0.163515,0\C,31,1.3941,28,118.55,27,139.469,0\C,32,1.3846,31,106.126,28,-147.748,0\C,33,1.39449,32,109.137,31,1.9888,0\C,34,1.3788,33,118.721,32,140.685,0\C,32,1.39849,31,121.237,28,0.698494,0\C,27,1.40421,26,116.977,25,137.623,0\C,31,1.41163,28,120.307,27,-3.07132,0\C,36,1.41612,32,119.091,31,-141.084,0\C,39,1.37565,36,107.294,32,140.139,0\C,40,1.39625,39,122.304,36,-140.847,0\C,19,1.41685,18,107.579,17,156.231,0\C,42,1.39925,19,116.106,18,-141.356,0\C,23,1.42042,22,119.671,18,2.79243,0\C,35,1.43204,34,122.407,33,-1.82963,0\C,45,1.36413,35,110.489,34,-144.464,0\C,46,1.41608,45,109.556,35,1.13249,0\C,47,1.39807,46,106.511,45,-0.419348,0\C,47,1.41617,46,120.115,45,135.196,0\C,45,1.4197,35,118.114,34,1.95997,0\C,50,1.36904,45,119.999,35,-0.608479,0\C,51,1.39508,50,107.693,45,-143.958,0\C,52,1.40192,51,107.596,50,1.00646,0\C,53,1.37551,52,109.781,51,-0.366091,0\C,54,1.37111,53,123.435,52,141.751,0\C,55,1.3956,54,117.448,53,0.841965,0\C,55,1.4182,54,121.503,53,-137.561,0\C,53,1.42894,52,119.727,51,143.797,0\C,43,1.48507,42,118.804,19,-11.6782,0\C,59,1.46132,43,125.783,42,4.03136,0\C,59,1.46738,43,125.653,42,-73.2748,0\C,61,1.55416,59,114.585,43,-135.774,0\H,62,1.09715,61,113.345,59,-164.1,0\H,62,1.09755,61,114.956,59,-43.9466,0\C,62,1.54357,61,112.24,59,80.3962,0\H,65,1.09718,62,111.146,61,-50.3559,0\H,65,1.09729,62,112.342,61,73.0497,0\C,65,1.50404,62,110.842,61,-171.063,0\H,68,1.0966,65,106.718,62,179.811,0\H,68,1.09712,65,105.737,62,-67.1604,0\C,68,1.53629,65,115.252,62,54.8177,0\O,71,1.22122,68,117.671,65,-120.728,0\O,71,1.3648,68,116.091,65,55.252,0\C,73,1.46453,71,119.529,68,179.965,0\H,74,1.09678,73,105.42,71,68.9002,0\H,74,1.097,73,110.289,71,-178.171,0\H,74,1.09721,73,114.265,71,-56.7517,0\C,61,1.57092,59,130.156,43,11.653,0\C,78,1.41905,61,115.078,59,-67.3654,0\H,79,1.08558,78,124.084,61,5.40219,0\C,79,1.40129,78,115.585,61,179.999,0\H,81,1.08672,79,115.814,78,171.863,0\C,81,1.37054,79,121.206,78,4.21058,0\H,83,1.08573,81,119.189,79,-177.179,0\C,83,1.39722,81,124.981,79,2.65498,0\H,85,1.08637,83,121.77,81,-179.336,0\C,85,1.41712,83,115.358,81,0.371277,0\H,87,1.08636,85,115.059,83,168.604,0\H,75,2.36424,74,108.874,73,158.891,0\C,89,1.0861,75,156.913,74,125.048,0\C,90,1.39732,89,115.743,75,-161.123,0\H,91,1.0861,90,117.397,89,-4.00459,0\C,91,1.37971,90,117.531,89,175.515,0\H,93,1.086,91,127.323,90,-177.255,0\C,90,1.4216,89,121.897,75,6.66784,0\H,95,1.0857,90,117.822,89,14.1506,0\C,95,1.38001,90,121.333,89,-177.299,0\C,97,1.40202,95,117.403,90,7.40313,0\H,98,1.08572,97,118.458,95,-179.003,0\C,97,1.50515,95,120.643,90,-176.942,0\C,100,1.48437,97,120.46,95,131.797,0\C,101,1.48633,100,61.3382,97,-107.456,0\C,102,1.45252,101,117.655,100,113.705,0\C,103,1.39282,102,107.881,101,141.566,0\C,104,1.37119,103,112.932,102,-4.65043,0\C,105,1.38362,104,103.882,103,0.666871,0\C,103,1.40272,102,121.74,101,0.00826492,0\C,107,1.40161,103,120.892,102,140.41,0\C,108,1.40494,107,112.562,103,-141.584,0\C,109,1.37758,108,104.302,107,-3.46852,0\C,110,1.39822,109,117.928,108,148.213,0\C,105,1.40742,104,121.724,103,-142.094,0\C,112,1.3504,105,123.62,104,-6.65401,0\C,110,1.40926,109,111.736,108,2.62576,0\C,112,1.42373,105,118.796,104,134.829,0\C,115,1.37327,112,119.967,105,1.31794,0\C,115,1.38634,112,110.167,105,-147.687,0\C,117,1.36614,115,118.237,112,145.833,0\C,117,1.38974,115,104.824,112,-1.3637,0\C,116,1.40727,115,120.631,112,-3.48436,0\C,119,1.40919,117,116.082,115,139.166,0\C,121,1.40871,119,119.582,117,-132.755,0\C,122,1.38637,121,108.385,119,142.043,0\C,123,1.35664,122,109.777,121,-0.185482,0\C,116,1.4133,115,120.921,112,-140.007,0\C,125,1.3633,116,110.04,115,140.031,0\C,126,1.37028,125,120.652,116,-142.797,0\C,127,1.40063,126,118.028,125,2.64751,0\C,128,1.38489,127,123.204,126,-3.36261,0\C,129,1.39306,128,117.233,127,0.00503214,0\C,126,1.41137,125,108.582,116,1.70313,0\C,131,1.38369,126,119.637,125,-149.793,0\C,123,1.41822,122,122.087,121,-147.747,0\C,133,1.41099,123,119.191,122,142.508,0\C,134,1.3832,133,104.866,123,-139.058,0\C,135,1.37318,134,108.391,133,-2.62557,0\C,136,1.3729,135,112.6,134,-1.13077,0\C,134,1.39296,133,122.305,123,-2.34358,0\C,137,1.39811,136,120.727,135,137.337,0\C,139,1.40074,137,123.896,136,-131.382,0\C,140,1.37124,139,109.774,137,147.87,0\C,141,1.40247,140,110.29,139,-0.491358,0\C,138,1.40882,134,116.713,133,1.73111,0\C,143,1.39854,138,109.541,134,-146.116,0\C,144,1.37567,143,119.105,138,146.46,0\C,138,1.41171,134,121.48,133,-135.374,0\C,146,1.38265,138,121.531,134,6.6217,0\C,147,1.37207,146,117.101,138,-6.90285,0\C,147,1.38233,146,123.852,138,138.756,0\C,149,1.37555,147,120.68,146,-8.31744,0\C,150,1.40456,149,121.269,147,-133.863,0\C,151,1.36794,150,122.643,149,-1.56741,0\C,149,1.40771,147,107.111,146,-146.019,0\C,152,1.41128,151,117.944,150,2.09421,0\C,150,1.41667,149,118.818,147,3.58271,0\C,155,1.38693,150,118.872,149,-1.34968,0\C,118,1.41944,117,117.342,115,-138.523,0\C,157,1.4072,118,118.872,117,5.61975,0\C,108,1.43065,107,121.29,103,4.15955,0\C,114,1.43136,110,122.897,109,140.698,0\C,100,1.55762,97,112.663,95,-79.586,0\H,161,1.09715,100,109.229,97,33.5589,0\H,161,1.09748,100,110.729,97,147.71,0\C,161,1.54268,100,118.457,97,-84.2273,0\H,164,1.09651,161,111.602,100,-64.3952,0\H,164,1.09696,161,115.298,100,58.1868,0\C,164,1.55594,161,107.133,100,-176.916,0\H,167,1.09753,164,117.867,161,-154.765,0\H,167,1.09774,164,110.721,161,-38.4664,0\C,167,1.49559,164,113.014,161,83.438,0\O,170,1.18813,167,126.792,164,-6.17882,0\O,170,1.33497,167,112.763,164,171.904,0\C,172,1.47168,170,117.731,167,173.268,0\H,173,1.09691,172,109.702,170,-174.446,0\H,173,1.0972,172,114.068,170,69.0828,0\H,173,1.09735,172,106.766,170,-51.4603,0\\\@

 Total job time:  864.89s(wall), 7371.11s(cpu) 
 Sun Oct  7 06:01:26 2018

        *************************************************************
        *                                                           *
        *  Thank you very much for using Q-Chem.  Have a nice day.  *
        *                                                           *
        *************************************************************


