
Running Job 1 of 1 ./8/16.qcin
qchem ./8/16.qcin_7372.0 /tmpu/cab_g/afmv_a/scratch_qchem/qchem7372/ 1
/tmpu/appuserlic/qchem4.4/serial-multicore/exe/qcprog.exe_s ./8/16.qcin_7372.0 /tmpu/cab_g/afmv_a/scratch_qchem/qchem7372/
Check license passed

                  Welcome to Q-Chem
     A Quantum Leap Into The Future Of Chemistry


 Q-Chem 4.4, Q-Chem, Inc., Pleasanton, CA (2016)

 Y. Shao,  Z. Gan,  E. Epifanovsky,  A. T. B. Gilbert,  M. Wormit,  
 J. Kussmann,  A. W. Lange,  A. Behn,  J. Deng,  X. Feng,  D. Ghosh,  
 M. Goldey,  P. R. Horn,  L. D. Jacobson,  I. Kaliman,  F. Rob,  
 R. Z. Khaliullin,  T. Kus,  A. Landau,  J. Liu,  E. I. Proynov,  Y. M. Rhee,  
 R. M. Richard,  M. A. Rohrdanz,  R. P. Steele,  E. J. Sundstrom,  
 H. L. Woodcock III,  P. M. Zimmerman,  D. Zuev,  B. Albrecht,  E. Alguire,  
 B. Austin,  S. A. Baeppler,  G. J. O. Beran,  Y. A. Bernard,  E. Berquist,  
 K. Brandhorst,  K. B. Bravaya,  S. T. Brown,  D. Casanova,  C.-M. Chang,  
 Y. Chen,  S. H. Chien,  K. D. Closser,  M. P. Coons,  D. L. Crittenden,  
 S. Dasgupta,  M. Diedenhofen,  R. A. DiStasio Jr.,  H. Do,  A. D. Dutoi,  
 R. G. Edgar,  P.-T. Fang,  S. Fatehi,  Q. Feng,  L. Fusti-Molnar,  
 A. Ghysels,  A. Golubeva-Zadorozhnaya,  J. Gomes,  A. Gunina,  
 M. W. D. Hanson-Heine,  P. H. P. Harbach,  A. W. Hauser,  J. E. Herr,  
 E. G. Hohenstein,  Z. C. Holden,  K. Hui,  T.-C. Jagau,  H. Ji,  B. Kaduk,  
 K. Khistyaev,  Jaehoon Kim,  Jihan Kim,  R. A. King,  P. Klunzinger,  
 K. Koh,  D. Kosenkov,  T. Kowalczyk,  C. M. Krauter,  A. Kunitsa,  
 K. U. Lao,  A. Laurent,  K. V. Lawler,  J. Lee,  D. Lefrancois,  S. Lehtola,  
 S. V. Levchenko,  C. Y. Lin,  Y.-S. Lin,  F. Liu,  E. Livshits,  
 R. C. Lochan,  A. Luenser,  P. Manohar,  S. F. Manzer,  S.-P. Mao,  Y. Mao,  
 N. Mardirossian,  A. V. Marenich,  L. A. Martinez-Martinez,  S. A. Maurer,  
 N. J. Mayhall,  J.-M. Mewes,  A. F. Morrison,  K. Nanda,  T. S. Nguyen-Beck,  
 C. M. Oana,  R. Olivares-Amaya,  D. P. O'Neill,  J. A. Parkhill,  
 T. M. Perrine,  R. Peverati,  P. A. Pieniazek,  F. Plasser,  A. Prociuk,  
 D. R. Rehn,  E. Rosta,  N. J. Russ,  N. Sergueev,  S. M. Sharada,  
 S. Sharma,  D. W. Small,  A. Sodt,  T. Stauch,  T. Stein,  D. Stuck,  
 Y.-C. Su,  A. J. W. Thom,  T. Tsuchimochi,  L. Vogt,  O. Vydrov,  T. Wang,  
 M. A. Watson,  J. Wenzel,  A. White,  C. F. Williams,  V. Vanovschi,  
 K. Yao,  S. Yeganeh,  S. R. Yost,  Z.-Q. You,  I. Y. Zhang,  X. Zhang,  
 Y. Zhao,  B. R. Brooks,  G. K. L. Chan,  D. M. Chipman,  C. J. Cramer,  
 W. A. Goddard III,  M. S. Gordon,  W. J. Hehre,  A. Klamt,  
 H. F. Schaefer III,  M. W. Schmidt,  C. D. Sherrill,  D. G. Truhlar,  
 A. Warshel,  X. Xu,  A. Aspuru-Guzik,  R. Baer,  A. T. Bell,  N. A. Besley,  
 J.-D. Chai,  A. Dreuw,  B. D. Dunietz,  T. R. Furlani,  S. R. Gwaltney,  
 C.-P. Hsu,  Y. Jung,  J. Kong,  D. S. Lambrecht,  W. Liang,  C. Ochsenfeld,  
 V. A. Rassolov,  L. V. Slipchenko,  J. E. Subotnik,  T. Van Voorhis,  
 J. M. Herbert,  A. I. Krylov,  P. M. W. Gill,  M. Head-Gordon

 Contributors to earlier versions of Q-Chem not listed above: 
 R. D. Adamson,  J. Baker,  E. F. C. Byrd,  A. K. Chakraborty,  C.-L. Cheng,  
 H. Dachsel,  R. J. Doerksen,  G. Hawkins,  A. Heyden,  S. Hirata,  
 G. Kedziora,  F. J. Keil,  C. Kelley,  P. P. Korambath,  W. Kurlancheek,  
 A. M. Lee,  M. S. Lee,  D. Liotard,  I. Lotan,  P. E. Maslen,  N. Nair,  
 D. Neuhauser,  R. Olson,  B. Peters,  J. Ritchie,  N. E. Schultz,  
 N. Shenvi,  A. C. Simmonett,  K. S. Thanthiriwatte,  Q. Wu,  W. Zhang

 Please cite Q-Chem as follows:
 Y. Shao et al., Mol. Phys. 113, 184-215 (2015)
 DOI: 10.1080/00268976.2014.952696

 Q-Chem 4.4.2 for Intel X86 Linux

 Parts of Q-Chem use Armadillo 5.200.1 (Boston Tea Smuggler).
 http://arma.sourceforge.net/

 Q-Chem begins on Sun Oct  7 06:44:47 2018  

Host: 
0

     Scratch files written to /tmpu/cab_g/afmv_a/scratch_qchem/qchem7372//
 Dec716 11556_ 22328  22283 4050   
Processing $rem in /tmpu/appuserlic/qchem4.4/serial-multicore/config/preferences.
 MEM_TOTAL  2000 
FILE_GEOM_ORG=        593

Checking the input file for inconsistencies... 	...done.

--------------------------------------------------------------
User input:
--------------------------------------------------------------
$comment
SP
$end

$rem
MEM_STATIC 5000
MEM_TOTAL 20000
JOBTYPE SP
EXCHANGE B3LYP
BASIS 6-31g(d,p)
$end

$molecule
0 1
O         -24.126000      5.409000     -2.171000
C         -24.983000      6.199000     -2.980000
H         -24.396000      7.010000     -3.426000
H         -25.795000      6.601000     -2.361000
H         -25.415000      5.558000     -3.759000
O         -25.685000      3.854000     -1.845000
C         -24.574000      4.336000     -1.548000
C         -23.717000      3.735000     -0.487000
H         -23.650000      4.453000      0.341000
H         -22.734000      3.794000     -0.971000
C         -24.066000      2.277000     -0.147000
H         -25.109000      2.101000      0.144000
H         -24.073000      1.726000     -1.096000
C         -22.923000      1.696000      0.769000
H         -22.000000      1.793000      0.184000
H         -22.843000      2.171000      1.755000
C         -23.222000      0.131000      1.050000
C         -24.573000     -0.144000      1.643000
C         -25.689000     -0.662000      0.882000
H         -25.583000     -0.957000     -0.158000
C         -26.851000     -0.926000      1.559000
H         -27.732000     -1.311000      1.053000
C         -27.003000     -0.540000      2.863000
H         -28.000000     -0.565000      3.293000
C         -25.943000     -0.138000      3.659000
H         -26.087000      0.238000      4.668000
C         -24.712000      0.096000      3.052000
H         -23.918000      0.530000      3.652000
C         -21.213000     -4.531000      3.003000
C         -22.664000     -5.323000      1.262000
C         -19.223000     -6.557000     -1.469000
C         -17.902000     -1.131000      1.403000
C         -19.333000     -3.659000     -3.471000
C         -22.408000     -4.435000      2.251000
C         -17.139000     -1.646000     -1.288000
C         -19.454000     -6.901000      0.909000
C         -22.832000     -2.523000     -1.693000
C         -18.496000     -0.424000      0.324000
C         -22.667000     -0.853000      0.032000
C         -21.872000     -1.570000     -2.105000
C         -19.270000     -0.569000     -1.759000
C         -17.454000     -2.574000     -2.291000
C         -23.420000     -3.320000      0.543000
C         -17.713000     -5.046000     -2.327000
C         -22.106000     -0.756000      1.427000
C         -20.658000     -0.356000      1.560000
C         -18.892000     -4.931000     -3.047000
C         -17.103000     -4.398000      1.623000
C         -17.375000     -5.876000     -0.005000
C         -18.172000     -6.274000      1.080000
C         -20.459000     -6.392000      1.702000
C         -20.075000     -1.101000      2.602000
C         -23.223000     -2.229000     -0.383000
C         -21.668000     -6.284000      0.969000
C         -18.142000     -0.692000     -0.994000
C         -23.239000     -4.653000      0.176000
C         -20.805000     -2.015000     -2.923000
C         -18.255000     -2.760000      2.949000
C         -19.966000     -6.973000     -0.354000
C         -21.668000     -0.593000     -1.111000
C         -18.987000     -5.040000      3.010000
C         -19.544000     -1.512000     -2.754000
C         -22.678000     -3.861000     -2.090000
C         -16.499000     -3.725000     -0.592000
C         -16.510000     -2.345000     -0.186000
C         -21.605000     -4.310000     -2.894000
C         -18.672000     -1.450000      2.581000
C         -19.859000     -0.025000      0.426000
C         -17.195000     -3.117000      2.068000
C         -22.209000     -1.973000      2.281000
C         -21.929000     -5.913000     -1.384000
C         -20.318000     -0.207000     -0.891000
C         -20.678000     -3.341000     -3.377000
C         -19.176000     -3.713000      3.399000
C         -19.826000     -5.822000     -2.474000
C         -20.262000     -5.508000      2.767000
C         -17.882000     -6.071000     -1.344000
C         -22.855000     -4.896000     -1.174000
C         -21.165000     -5.563000     -2.439000
C         -22.867000     -3.147000      1.843000
C         -20.989000     -2.108000      2.983000
C         -16.704000     -4.728000      0.371000
C         -21.294000     -6.562000     -0.284000
C         -18.642000     -2.485000     -3.045000
C         -16.926000     -2.116000      1.170000
C         -17.046000     -3.841000     -1.895000
C         -20.536000     -3.368000      3.449000
C         -17.995000     -5.344000      2.110000
O         -13.336000     -2.169000      6.429000
C         -14.631000     -1.830000      7.009000
H         -15.398000     -2.609000      6.921000
H         -15.068000     -0.949000      6.523000
H         -14.515000     -1.631000      8.082000
O         -14.130000     -2.189000      4.211000
C         -13.199000     -2.243000      5.054000
C         -11.774000     -2.615000      4.586000
H         -11.120000     -2.252000      5.388000
H         -11.498000     -1.951000      3.757000
C         -11.656000     -4.136000      4.325000
H         -10.584000     -4.211000      4.101000
H         -11.889000     -4.749000      5.205000
C         -12.477000     -4.548000      3.102000
H         -13.535000     -4.508000      3.391000
H         -12.205000     -3.780000      2.367000
C         -12.161000     -5.933000      2.585000
C         -12.219000     -6.977000      3.666000
C         -13.482000     -7.472000      4.063000
H         -14.336000     -7.089000      3.513000
C         -13.536000     -8.546000      4.980000
H         -14.502000     -9.013000      5.152000
C         -12.396000     -8.800000      5.722000
H         -12.468000     -9.459000      6.582000
C         -11.140000     -8.338000      5.429000
H         -10.270000     -8.685000      5.979000
C         -11.059000     -7.356000      4.376000
H         -10.088000     -6.921000      4.160000
C          -8.584000     -8.934000     -0.449000
C         -10.787000     -9.997000     -0.727000
C         -11.477000     -8.759000     -5.098000
C          -9.087000     -3.986000     -1.569000
C         -13.654000     -6.087000     -4.336000
C          -9.890000     -9.319000      0.052000
C         -11.028000     -3.682000     -3.596000
C          -9.502000     -9.520000     -3.948000
C         -13.872000     -7.434000     -0.493000
C         -10.409000     -3.561000     -1.288000
C         -12.547000     -6.290000      1.155000
C         -14.026000     -6.072000     -0.769000
C         -12.589000     -3.880000     -1.725000
C         -11.893000     -4.384000     -4.449000
C         -12.053000     -8.620000      0.585000
C         -11.674000     -6.483000     -5.649000
C         -11.099000     -6.090000      1.493000
C         -10.343000     -5.007000      0.742000
C         -12.868000     -6.966000     -5.180000
C          -8.021000     -6.357000     -3.921000
C          -9.473000     -7.453000     -5.281000
C          -8.829000     -8.420000     -4.468000
C          -9.209000     -9.936000     -2.619000
C          -9.093000     -5.450000      0.344000
C         -12.957000     -7.599000      0.581000
C         -10.428000    -10.305000     -2.077000
C         -11.396000     -3.427000     -2.260000
C         -12.092000     -9.575000     -0.452000
C         -14.172000     -5.655000     -2.136000
C          -7.706000     -5.754000     -1.596000
C         -10.848000     -9.728000     -4.275000
C         -13.209000     -5.342000      0.139000
C          -7.624000     -8.106000     -2.336000
C         -13.440000     -4.532000     -2.611000
C         -13.882000     -8.376000     -1.504000
C          -9.786000     -5.052000     -4.994000
C          -9.748000     -4.096000     -3.939000
C         -14.123000     -7.935000     -2.879000
C          -8.503000     -4.920000     -0.761000
C         -11.009000     -4.147000     -0.084000
C          -7.871000     -5.349000     -2.920000
C         -10.123000     -7.268000      1.267000
C         -12.695000     -9.702000     -2.802000
C         -12.410000     -4.313000     -0.402000
C         -14.202000     -6.608000     -3.163000
C          -7.497000     -7.121000     -1.286000
C         -12.788000     -8.351000     -4.882000
C          -8.326000     -9.217000     -1.830000
C         -10.829000     -7.629000     -5.600000
C         -13.047000     -9.452000     -1.454000
C         -13.415000     -8.826000     -3.682000
C         -10.651000     -8.478000      0.786000
C          -8.949000     -6.804000      0.642000
C          -8.944000     -6.215000     -4.929000
C         -11.405000    -10.171000     -3.102000
C         -13.128000     -4.819000     -3.955000
C          -8.782000     -4.253000     -2.894000
C         -11.150000     -5.213000     -5.294000
C          -8.156000     -7.639000     -0.185000
C          -7.878000     -7.735000     -3.684000
$end

--------------------------------------------------------------
 ----------------------------------------------------------------
             Standard Nuclear Orientation (Angstroms)
    I     Atom           X                Y                Z
 ----------------------------------------------------------------
    1      O      11.2876485312     3.3577087175    -4.8946328725
    2      C      12.3064162481     4.3029549018    -5.1803809958
    3      H      12.1117881755     4.7422553424    -6.1654398956
    4      H      13.2812891187     3.7994918501    -5.1643547138
    5      H      12.2933596202     5.0753310168    -4.4008871462
    6      O      11.9764544092     3.0846902418    -2.7956356419
    7      C      11.2606899539     2.7103263974    -3.7455761434
    8      C      10.3603300893     1.5281876714    -3.6303756798
    9      H      10.7354677145     0.7497605539    -4.3078120126
   10      H       9.4653003433     1.9123979273    -4.1356778003
   11      C      10.0335220301     1.1247029462    -2.1834611803
   12      H      10.9033845182     0.9299730916    -1.5439883228
   13      H       9.6681690925     2.0287322630    -1.6799741144
   14      C       8.8735555644     0.0586963883    -2.2177221906
   15      H       8.0363960500     0.5518989630    -2.7271121864
   16      H       9.1441829957    -0.8947899024    -2.6887271660
   17      C       8.4460842652    -0.2987973177    -0.6988233991
   18      C       9.5775614729    -0.7687233932     0.1680121169
   19      C      10.2241186817     0.0640879312     1.1586129820
   20      H       9.8669017667     1.0647524191     1.3842845536
   21      C      11.2050754670    -0.5076931352     1.9261149022
   22      H      11.7381849215     0.0573900548     2.6856524576
   23      C      11.6771910249    -1.7593026776     1.6378503481
   24      H      12.5936238562    -2.0861285681     2.1204160980
   25      C      11.0303933025    -2.6292262125     0.7754665879
   26      H      11.4546606644    -3.5896067584     0.4964335921
   27      C       9.9835648966    -2.1360343447     0.0012068962
   28      H       9.5610465621    -2.7821133110    -0.7622406962
   29      C       4.7640272917    -2.7666926283     2.4533953718
   30      C       5.4575947404    -0.9463415253     3.8566173984
   31      C       1.5305083453     1.3269636432     3.3752920869
   32      C       3.2349068228    -1.2793648159    -2.0778701877
   33      C       2.7229100148     3.5269183476     0.8939848594
   34      C       5.7652605406    -1.8919476374     2.9382646141
   35      C       1.9965103034     1.2773521675    -1.9420492484
   36      C       1.8658394390    -1.0332721248     3.7540019720
   37      C       6.5386172574     2.1983965685     1.5024165490
   38      C       3.9512432809    -0.0987807938    -2.4095469058
   39      C       7.3784626326     0.5862267194    -0.0747068208
   40      C       6.0864438303     2.5758380906     0.2168699380
   41      C       4.3080190259     2.0370578923    -1.8900335038
   42      C       1.7204056227     2.2400759872    -0.9605468021
   43      C       6.9602348945    -0.0161229486     2.4504623689
   44      C       0.7990751567     2.1298362099     1.3455664571
   45      C       7.1020390020    -0.8485142561    -0.4424884268
   46      C       6.0323492749    -1.1002020028    -1.4753534548
   47      C       1.7989837796     2.9725200734     1.8057106216
   48      C       1.0481880804    -1.8069209378     0.4321169996
   49      C       0.4030539003    -0.2667143546     1.8882823647
   50      C       1.0516179222    -1.2899204113     2.5976849832
   51      C       3.0810225352    -1.6822696665     3.7633418704
   52      C       5.3035394946    -2.2455976375    -1.1044314359
   53      C       7.1786953252     0.9587796892     1.4071954390
   54      C       4.1024321369    -0.8241154676     4.2438913438
   55      C       3.3547004687     1.1543591974    -2.3198761988
   56      C       6.1392653918     0.2366723271     3.5488441896
   57      C       4.8433902722     3.2477870184     0.1223157730
   58      C       2.9804296524    -2.8911329035    -0.4948948241
   59      C       2.1270157400     0.2672278701     4.0749127121
   60      C       6.4815707204     1.6367763603    -0.7558678516
   61      C       2.5751138645    -3.0360290790     1.8615154141
   62      C       3.9899594539     2.9866178685    -0.9145726075
   63      C       5.7353550124     2.4833657005     2.6182710913
   64      C       0.5577017181     0.3764823263    -0.4141355127
   65      C       1.2559733620     0.0709344320    -1.6341413305
   66      C       4.4869003774     3.1405313064     2.5242477385
   67      C       3.9077480709    -2.3921026751    -1.4522152416
   68      C       5.3450030834    -0.0332466028    -2.1257989848
   69      C       1.7765262313    -2.1498167846    -0.6630523829
   70      C       6.7338985352    -1.7703351783     0.6691467580
   71      C       4.2145829197     1.5633445171     4.0711834300
   72      C       5.5021073101     1.3077677132    -1.7317268262
   73      C       4.0623916789     3.5929086701     1.2409994828
   74      C       3.4030283831    -3.3102588497     0.7718702504
   75      C       2.2767865742     2.4369838802     3.0220458859
   76      C       3.4479566871    -2.6975589411     2.8750643141
   77      C       0.5935792382     1.1001178037     2.3166104476
   78      C       5.5240323116     1.5202525792     3.6028348687
   79      C       3.5764507495     2.5567970823     3.4192169170
   80      C       6.7143581372    -1.3504764887     2.0205981458
   81      C       5.6865303587    -2.6007305542     0.2077440895
   82      C       0.3915391974    -0.6281856685     0.5545931577
   83      C       3.4916782090     0.3617862183     4.3321286999
   84      C       2.7120080392     3.1156040615    -0.4727392185
   85      C       1.8935541719    -1.2163142600    -1.6608717542
   86      C       0.8243282930     1.7171757348    -0.0374055641
   87      C       4.7627777145    -3.1971937653     1.1026617897
   88      C       1.4531084853    -2.2652315632     1.6786080089
   89      O      -0.6372890051    -6.8046845318    -3.3676056289
   90      C       0.7276512861    -7.2246060851    -3.0693609467
   91      H       1.0295889630    -7.1134155113    -2.0208647400
   92      H       1.4594655639    -6.6363532991    -3.6365756528
   93      H       0.8495900626    -8.2873404704    -3.3145395779
   94      O      -0.2216578033    -4.5241248342    -2.9472983962
   95      C      -0.9605238435    -5.4593348082    -3.3470299050
   96      C      -2.4411216740    -5.1661079262    -3.6785130270
   97      H      -2.7488176061    -6.0033207501    -4.3165466474
   98      H      -2.4777692731    -4.3252886100    -4.3827806119
   99      C      -3.2808035710    -5.0251881445    -2.3860108309
  100      H      -4.2840910948    -4.9174028017    -2.8181930430
  101      H      -3.2520392985    -5.9174440307    -1.7476456923
  102      C      -2.9008402087    -3.7565922380    -1.6206310106
  103      H      -1.9180689798    -3.9327474656    -1.1649830683
  104      H      -2.8743012037    -3.0013940303    -2.4162467144
  105      C      -3.8827988281    -3.3723317615    -0.5373622738
  106      C      -4.1825098104    -4.5119391427     0.3971586429
  107      C      -3.2541724478    -4.8116754700     1.4199738145
  108      H      -2.3946588158    -4.1521311487     1.4888403862
  109      C      -3.5914045101    -5.7910378313     2.3814335908
  110      H      -2.9384431427    -5.8958178381     3.2436931821
  111      C      -4.6187193187    -6.6612699698     2.0620587181
  112      H      -4.7550407495    -7.5532973329     2.6660195206
  113      C      -5.5434264755    -6.4663249629     1.0702209701
  114      H      -6.4003218342    -7.1249900243     0.9620559055
  115      C      -5.2891707998    -5.3611707120     0.1793325746
  116      H      -5.9667330481    -5.2154684454    -0.6563720677
  117      C      -8.7843951892    -0.9354158623     0.4833629648
  118      C      -7.3766000003    -0.5091087672     2.4574037361
  119      C      -6.7341133246     3.9850846037     1.7475996670
  120      C      -6.1898259951     0.5722894845    -3.6379412321
  121      C      -3.4926121212     3.6371321268     0.3943975305
  122      C      -7.7546295887    -1.3263030638     1.4276362323
  123      C      -4.5938538605     2.8028180159    -2.9699281963
  124      C      -8.6790846758     2.5895116891     1.4798148970
  125      C      -3.4532261614    -0.2481497532     1.6327898184
  126      C      -4.7980607468     0.4578276669    -3.3988638680
  127      C      -3.8846518494    -1.9388256437    -0.0212210368
  128      C      -2.7214307559     0.1364026021     0.5051679977
  129      C      -3.0855697973     1.0914498292    -2.0908012919
  130      C      -4.2641056534     3.6885105839    -1.9328877945
  131      C      -5.4668144518    -1.5860064028     1.8145665552
  132      C      -5.5752226077     4.7106450295    -0.1637141154
  133      C      -5.0217678880    -2.4078894134    -0.8802287752
  134      C      -5.2762723337    -1.6641845431    -2.1804428164
  135      C      -4.6930697527     4.3332633355     0.8152013035
  136      C      -8.5117633643     2.6323036317    -2.0085703208
  137      C      -7.9112907239     4.0534763823    -0.3415908306
  138      C      -8.8245124945     3.1136305664     0.2001746539
  139      C      -8.9658016966     1.2118132695     1.6916790388
  140      C      -6.6275182797    -1.4275344093    -2.3682834601
  141      C      -4.2010843666    -1.4187001372     1.3353912584
  142      C      -7.9999744898     0.7724875327     2.5805303782
  143      C      -3.9888298438     1.5323364100    -3.0418130222
  144      C      -6.0018835719    -0.6195585288     2.6912617950
  145      C      -2.5679615172     1.5368959447     0.2241705064
  146      C      -8.2238925190     0.3350388161    -2.7214263678
  147      C      -7.6338657262     3.0367048565     2.2980108506
  148      C      -2.9893312159    -0.7970238780    -0.5349268777
  149      C      -9.4754118098     0.8970183936    -0.6710345957
  150      C      -2.7490160536     2.0119490718    -1.1040319560
  151      C      -4.0045459079     0.6904475946     2.4840633090
  152      C      -6.4898821517     3.9679917427    -2.3208404478
  153      C      -5.9512636742     2.9838533204    -3.1982039423
  154      C      -3.7575502643     2.1102366130     2.2264215124
  155      C      -7.0357129250    -0.3541777463    -3.0971919630
  156      C      -4.3948624089    -0.7166565127    -2.6171797807
  157      C      -8.0540223124     1.6939613075    -2.9835327878
  158      C      -6.4516009560    -2.3652425244    -0.2927812110
  159      C      -5.8196534831     1.7650610401     3.1186020651
  160      C      -3.2808141434    -0.2698597036    -1.8104889641
  161      C      -3.1087787573     2.4926424421     1.0947469507
  162      C      -9.0021139605    -0.0892081190    -1.6155982048
  163      C      -5.3678494355     3.9328185992     1.9974641308
  164      C      -9.3113351814     0.3889813583     0.6320917338
  165      C      -6.8414986637     4.4959813592     0.4528947222
  166      C      -5.2295176228     0.4806917618     3.0434806740
  167      C      -4.8900575019     2.7727956086     2.6937510899
  168      C      -6.6072059238    -1.9184742431     1.0302570336
  169      C      -7.3441323409    -1.8323412231    -1.2433604713
  170      C      -7.7594306551     3.7365709957    -1.6880300217
  171      C      -7.2060254146     1.8985712366     2.9336455971
  172      C      -3.3206732086     3.2938463363    -0.9775546831
  173      C      -6.7437487619     1.8374402512    -3.5261284159
  174      C      -5.4037923150     4.3935035197    -1.5361331175
  175      C      -8.5282817278    -1.1507254204    -0.8649517941
  176      C      -9.2460937343     2.2864583408    -0.8611157716
 ----------------------------------------------------------------
 Molecular Point Group                 C1    NOp =  1
 Largest Abelian Subgroup              C1    NOp =  1
 Nuclear Repulsion Energy = 34311.4981160177 hartrees
 There are      462 alpha and      462 beta electrons
 Requested basis set is 6-31G(d,p)
 There are 676 shells and 2360 basis functions

 Total QAlloc Memory Limit  20000 MB
 Mega-Array Size      4888 MB
 MEM_STATIC part      5000 MB
 A cutoff of  1.0D-08 yielded  37021 shell pairs
 There are    523371 function pairs
 
 -------------------------------------------------------
 OpenMP Integral Computing Module                       
 Release: version 1.0, May 2013, Q-Chem Inc. Pittsburgh 
 -------------------------------------------------------
 Integral Job Info:
 Integral job number is                      11
 Integral operator is                         1
 short-range coefficients                     0
 long-range coefficients              100000000
 Omega coefficients                           0
 if combine SR and LR in K                    0
 Integral screening is                        0
 Integral computing path is                   2
 max size of driver memory is            800000
 size of driver memory is                593474
 size of scratch memory is              2260544
 max col of scratch BK array               1296
 max len of scratch array in speh3          155
 max len of scratch index in speh4           18
 max int batch size is                      520
 min int batch size is                       52
 fixed nKL is                                52
 max L of basis functions is                  2
 order of int derivative is                   0
 number of shells is                        676
 number of basis is                        2360
 number of cartesian basis is              2360
 number of contracted shell pairs         37021
 number of primitive shell pairs         112539
 maxK2 (contraction) of shell pair           36
 max number of K2 of shell pair               1
 max number of CS2 of shell pair           7140
 max number of PS2 of shell pair          34152
 mem total for path MDJ                 1491352
 -------------------------------------------------------
 Smallest overlap matrix eigenvalue = 2.42E-04

 Scale SEOQF with 1.000000e-02/1.000000e-02/1.000000e-02

 Standard Electronic Orientation quadrupole field applied
 Nucleus-field energy     =     0.0000001215 hartrees
 Guess from superposition of atomic densities
 Warning:  Energy on first SCF cycle will be non-variational
 A restricted hybrid HF-DFT SCF calculation will be
 performed using Pulay DIIS extrapolation
 Exchange:     0.2000 Hartree-Fock + 0.0800 Slater + 0.7200 B88
 Correlation:  0.1900 VWN1RPA + 0.8100 LYP
 Using SG-1 standard quadrature grid
 SCF converges when DIIS error is below 1.0E-05
 using 16 threads for integral computing 
 -------------------------------------------------------
 OpenMP BLAS3 based DFT computing Module                
 Release: version 1.0, May 2013, Q-Chem Inc. Pittsburgh 
 -------------------------------------------------------
 ---------------------------------------
  Cycle       Energy         DIIS Error
 ---------------------------------------
    1   -5858.4506494104      1.83E-02
    2   -5803.0935742124      1.30E-03
    3   -5802.1203027975      1.88E-03
    4   -5803.9606696943      6.63E-04
    5   -5804.2062505096      2.81E-04
    6   -5804.2533873469      1.37E-04
    7   -5804.2661236014      4.18E-05
    8   -5804.2670557500      1.96E-05
    9   -5804.2672419988      8.00E-06 Convergence criterion met
 ---------------------------------------
 SCF time:  CPU 7065.06 s  wall 818.65 s
 SCF   energy in the final basis set = -5804.2672419988
 Total energy in the final basis set = -5804.2672419988
 
 --------------------------------------------------------------
 
                    Orbital Energies (a.u.)
 --------------------------------------------------------------
 
 Alpha MOs
 -- Occupied --
-19.203 -19.194 -19.138 -19.121 -10.324 -10.312 -10.251 -10.247
-10.240 -10.236 -10.236 -10.234 -10.233 -10.233 -10.229 -10.229
-10.225 -10.225 -10.222 -10.222 -10.221 -10.221 -10.220 -10.220
-10.219 -10.219 -10.218 -10.218 -10.218 -10.217 -10.217 -10.217
-10.217 -10.216 -10.216 -10.216 -10.216 -10.216 -10.216 -10.216
-10.215 -10.215 -10.215 -10.215 -10.215 -10.215 -10.214 -10.214
-10.214 -10.214 -10.214 -10.214 -10.214 -10.213 -10.213 -10.213
-10.213 -10.213 -10.213 -10.213 -10.213 -10.212 -10.212 -10.212
-10.212 -10.212 -10.212 -10.212 -10.212 -10.212 -10.212 -10.212
-10.212 -10.212 -10.211 -10.211 -10.211 -10.211 -10.211 -10.211
-10.211 -10.211 -10.211 -10.211 -10.210 -10.210 -10.210 -10.210
-10.210 -10.209 -10.209 -10.209 -10.209 -10.209 -10.209 -10.209
-10.209 -10.208 -10.208 -10.208 -10.208 -10.208 -10.208 -10.208
-10.208 -10.207 -10.207 -10.207 -10.207 -10.207 -10.206 -10.206
-10.206 -10.206 -10.205 -10.205 -10.205 -10.205 -10.205 -10.205
-10.205 -10.204 -10.204 -10.204 -10.204 -10.204 -10.204 -10.203
-10.203 -10.202 -10.202 -10.202 -10.201 -10.201 -10.201 -10.201
-10.201 -10.200 -10.200 -10.200 -10.200 -10.199 -10.196 -10.194
-10.194 -10.193 -10.190 -10.190  -1.108  -1.082  -0.999  -0.992
 -0.982  -0.978  -0.964  -0.961  -0.960  -0.959  -0.958  -0.956
 -0.932  -0.928  -0.927  -0.924  -0.923  -0.921  -0.919  -0.919
 -0.919  -0.918  -0.895  -0.894  -0.889  -0.884  -0.882  -0.881
 -0.872  -0.871  -0.854  -0.852  -0.839  -0.837  -0.836  -0.836
 -0.834  -0.832  -0.818  -0.816  -0.805  -0.804  -0.796  -0.795
 -0.793  -0.793  -0.790  -0.790  -0.789  -0.786  -0.781  -0.781
 -0.769  -0.767  -0.765  -0.765  -0.764  -0.762  -0.760  -0.760
 -0.755  -0.748  -0.746  -0.742  -0.732  -0.729  -0.713  -0.712
 -0.711  -0.711  -0.709  -0.709  -0.708  -0.708  -0.706  -0.706
 -0.704  -0.704  -0.703  -0.702  -0.702  -0.701  -0.669  -0.668
 -0.657  -0.655  -0.653  -0.652  -0.645  -0.644  -0.628  -0.627
 -0.626  -0.626  -0.621  -0.620  -0.619  -0.618  -0.616  -0.614
 -0.611  -0.611  -0.610  -0.609  -0.608  -0.608  -0.607  -0.605
 -0.605  -0.604  -0.600  -0.600  -0.569  -0.563  -0.560  -0.559
 -0.559  -0.557  -0.556  -0.555  -0.554  -0.553  -0.551  -0.550
 -0.534  -0.532  -0.530  -0.529  -0.526  -0.526  -0.523  -0.520
 -0.519  -0.519  -0.517  -0.516  -0.512  -0.512  -0.511  -0.510
 -0.506  -0.504  -0.499  -0.497  -0.496  -0.488  -0.485  -0.482
 -0.481  -0.480  -0.479  -0.476  -0.476  -0.476  -0.475  -0.471
 -0.471  -0.469  -0.468  -0.467  -0.467  -0.464  -0.464  -0.463
 -0.463  -0.462  -0.461  -0.460  -0.460  -0.459  -0.459  -0.457
 -0.455  -0.453  -0.450  -0.448  -0.446  -0.445  -0.442  -0.440
 -0.440  -0.438  -0.437  -0.437  -0.436  -0.435  -0.432  -0.430
 -0.429  -0.428  -0.426  -0.426  -0.426  -0.425  -0.422  -0.421
 -0.421  -0.420  -0.418  -0.417  -0.417  -0.416  -0.416  -0.415
 -0.414  -0.414  -0.414  -0.413  -0.412  -0.411  -0.411  -0.408
 -0.408  -0.406  -0.406  -0.405  -0.401  -0.398  -0.393  -0.393
 -0.390  -0.387  -0.386  -0.386  -0.384  -0.382  -0.382  -0.377
 -0.376  -0.374  -0.369  -0.369  -0.368  -0.365  -0.364  -0.364
 -0.363  -0.362  -0.361  -0.360  -0.358  -0.357  -0.356  -0.356
 -0.355  -0.354  -0.354  -0.353  -0.352  -0.352  -0.351  -0.351
 -0.348  -0.347  -0.346  -0.345  -0.344  -0.343  -0.342  -0.341
 -0.340  -0.340  -0.339  -0.338  -0.335  -0.335  -0.331  -0.331
 -0.328  -0.327  -0.326  -0.325  -0.325  -0.323  -0.322  -0.321
 -0.311  -0.307  -0.300  -0.294  -0.284  -0.281  -0.268  -0.268
 -0.267  -0.265  -0.264  -0.264  -0.262  -0.261  -0.261  -0.259
 -0.259  -0.258  -0.258  -0.256  -0.256  -0.252  -0.252  -0.251
 -0.248  -0.244  -0.241  -0.239  -0.220  -0.217  -0.208  -0.207
 -0.207  -0.206  -0.202  -0.202  -0.199  -0.194
 -- Virtual --
 -0.122  -0.121  -0.117  -0.115  -0.105  -0.102  -0.077  -0.072
 -0.070  -0.068  -0.058  -0.056  -0.050  -0.048  -0.021  -0.019
 -0.019  -0.017  -0.016  -0.015  -0.015  -0.012  -0.010  -0.009
 -0.008  -0.007  -0.006  -0.006  -0.005  -0.003   0.000   0.008
  0.011   0.012   0.034   0.040   0.045   0.047   0.049   0.050
  0.054   0.057   0.058   0.059   0.066   0.066   0.069   0.070
  0.073   0.073   0.082   0.084   0.086   0.086   0.088   0.092
  0.098   0.099   0.100   0.104   0.105   0.105   0.106   0.110
  0.111   0.112   0.114   0.116   0.117   0.118   0.122   0.123
  0.125   0.126   0.129   0.131   0.132   0.133   0.135   0.137
  0.138   0.141   0.141   0.146   0.150   0.150   0.151   0.154
  0.157   0.160   0.162   0.162   0.164   0.166   0.168   0.170
  0.172   0.174   0.176   0.177   0.178   0.180   0.182   0.184
  0.186   0.186   0.189   0.191   0.191   0.192   0.193   0.196
  0.197   0.199   0.199   0.200   0.203   0.205   0.207   0.209
  0.209   0.213   0.215   0.217   0.218   0.219   0.221   0.221
  0.223   0.225   0.226   0.226   0.227   0.228   0.228   0.230
  0.232   0.234   0.234   0.236   0.237   0.238   0.241   0.242
  0.244   0.244   0.246   0.249   0.250   0.252   0.255   0.258
  0.265   0.270   0.274   0.276   0.277   0.280   0.281   0.283
  0.284   0.287   0.289   0.291   0.297   0.301   0.303   0.307
  0.310   0.311   0.314   0.317   0.317   0.318   0.320   0.321
  0.325   0.327   0.327   0.330   0.331   0.333   0.334   0.337
  0.338   0.339   0.340   0.343   0.346   0.347   0.350   0.354
  0.354   0.356   0.357   0.373   0.374   0.376   0.390   0.391
  0.398   0.400   0.404   0.406   0.407   0.409   0.409   0.412
  0.413   0.413   0.414   0.418   0.418   0.423   0.425   0.426
  0.430   0.431   0.434   0.437   0.442   0.446   0.447   0.450
  0.451   0.455   0.457   0.459   0.462   0.465   0.466   0.468
  0.469   0.470   0.473   0.474   0.475   0.477   0.478   0.479
  0.481   0.482   0.482   0.484   0.485   0.486   0.488   0.488
  0.489   0.492   0.494   0.496   0.496   0.497   0.498   0.498
  0.499   0.501   0.501   0.503   0.504   0.505   0.506   0.508
  0.508   0.508   0.509   0.510   0.512   0.513   0.514   0.514
  0.514   0.516   0.516   0.517   0.518   0.519   0.519   0.520
  0.522   0.523   0.524   0.524   0.525   0.526   0.527   0.527
  0.528   0.529   0.530   0.530   0.531   0.532   0.534   0.535
  0.536   0.537   0.537   0.538   0.538   0.539   0.540   0.541
  0.541   0.542   0.543   0.543   0.544   0.545   0.547   0.547
  0.548   0.549   0.550   0.550   0.551   0.552   0.552   0.553
  0.554   0.555   0.555   0.556   0.556   0.558   0.558   0.559
  0.559   0.560   0.560   0.561   0.562   0.563   0.564   0.565
  0.565   0.565   0.567   0.567   0.568   0.570   0.571   0.572
  0.572   0.573   0.574   0.575   0.576   0.576   0.577   0.580
  0.581   0.582   0.583   0.584   0.585   0.586   0.586   0.587
  0.587   0.589   0.589   0.590   0.590   0.592   0.592   0.593
  0.594   0.595   0.596   0.597   0.597   0.599   0.599   0.601
  0.602   0.602   0.603   0.603   0.605   0.606   0.608   0.609
  0.610   0.611   0.612   0.613   0.615   0.616   0.617   0.617
  0.618   0.619   0.621   0.622   0.623   0.624   0.625   0.626
  0.626   0.628   0.629   0.630   0.632   0.632   0.634   0.635
  0.636   0.637   0.638   0.638   0.639   0.640   0.641   0.641
  0.642   0.643   0.645   0.646   0.646   0.648   0.648   0.650
  0.650   0.651   0.653   0.654   0.655   0.656   0.657   0.659
  0.659   0.661   0.661   0.662   0.663   0.663   0.665   0.666
  0.666   0.668   0.669   0.669   0.670   0.671   0.671   0.672
  0.673   0.673   0.675   0.675   0.676   0.677   0.678   0.680
  0.682   0.682   0.684   0.686   0.686   0.689   0.689   0.691
  0.692   0.693   0.693   0.695   0.695   0.696   0.697   0.698
  0.700   0.700   0.702   0.704   0.705   0.706   0.708   0.708
  0.709   0.711   0.713   0.714   0.715   0.715   0.716   0.718
  0.719   0.719   0.720   0.722   0.723   0.726   0.727   0.728
  0.729   0.729   0.731   0.731   0.732   0.734   0.735   0.735
  0.736   0.738   0.740   0.742   0.742   0.744   0.746   0.749
  0.749   0.752   0.754   0.755   0.756   0.758   0.759   0.759
  0.760   0.760   0.761   0.764   0.765   0.766   0.768   0.769
  0.771   0.772   0.772   0.773   0.775   0.777   0.778   0.778
  0.779   0.780   0.782   0.783   0.785   0.787   0.788   0.789
  0.792   0.793   0.793   0.795   0.796   0.798   0.798   0.799
  0.801   0.801   0.803   0.804   0.805   0.805   0.806   0.807
  0.808   0.809   0.809   0.810   0.811   0.811   0.812   0.813
  0.815   0.815   0.816   0.817   0.817   0.818   0.818   0.820
  0.821   0.822   0.822   0.823   0.823   0.824   0.825   0.826
  0.827   0.828   0.829   0.830   0.830   0.831   0.833   0.833
  0.834   0.836   0.838   0.839   0.840   0.845   0.847   0.849
  0.851   0.854   0.857   0.860   0.863   0.865   0.866   0.870
  0.873   0.876   0.880   0.880   0.882   0.885   0.888   0.890
  0.892   0.896   0.897   0.899   0.900   0.902   0.902   0.907
  0.909   0.914   0.915   0.919   0.919   0.921   0.924   0.927
  0.930   0.931   0.932   0.934   0.934   0.938   0.939   0.940
  0.940   0.941   0.942   0.944   0.946   0.947   0.951   0.952
  0.953   0.955   0.957   0.960   0.964   0.966   0.969   0.971
  0.972   0.975   0.976   0.980   0.981   0.984   0.988   0.990
  0.993   0.994   0.999   0.999   1.000   1.002   1.003   1.007
  1.008   1.010   1.012   1.014   1.015   1.018   1.019   1.020
  1.020   1.021   1.023   1.027   1.029   1.031   1.034   1.035
  1.035   1.037   1.038   1.040   1.040   1.042   1.044   1.045
  1.047   1.048   1.048   1.052   1.054   1.056   1.058   1.060
  1.062   1.063   1.066   1.068   1.069   1.070   1.072   1.075
  1.077   1.079   1.080   1.083   1.084   1.085   1.086   1.087
  1.089   1.090   1.090   1.092   1.093   1.094   1.096   1.097
  1.099   1.101   1.102   1.107   1.107   1.110   1.110   1.111
  1.114   1.115   1.117   1.121   1.123   1.124   1.127   1.129
  1.129   1.131   1.132   1.135   1.138   1.140   1.142   1.144
  1.150   1.152   1.154   1.156   1.156   1.158   1.159   1.163
  1.163   1.165   1.167   1.170   1.171   1.172   1.174   1.175
  1.176   1.177   1.178   1.181   1.184   1.186   1.187   1.188
  1.190   1.193   1.195   1.195   1.196   1.199   1.200   1.202
  1.206   1.206   1.209   1.210   1.211   1.215   1.218   1.220
  1.224   1.225   1.228   1.231   1.233   1.235   1.241   1.244
  1.246   1.247   1.253   1.255   1.257   1.259   1.260   1.262
  1.264   1.266   1.267   1.269   1.271   1.273   1.275   1.276
  1.278   1.279   1.281   1.283   1.284   1.286   1.288   1.292
  1.293   1.294   1.296   1.301   1.306   1.307   1.309   1.312
  1.313   1.315   1.316   1.319   1.320   1.324   1.327   1.329
  1.335   1.337   1.340   1.341   1.345   1.346   1.348   1.350
  1.351   1.352   1.358   1.358   1.362   1.364   1.366   1.368
  1.369   1.371   1.374   1.380   1.380   1.382   1.385   1.387
  1.390   1.391   1.396   1.398   1.400   1.401   1.404   1.406
  1.408   1.410   1.413   1.417   1.421   1.424   1.426   1.427
  1.428   1.434   1.436   1.440   1.444   1.446   1.449   1.450
  1.450   1.454   1.457   1.460   1.461   1.461   1.462   1.463
  1.465   1.466   1.469   1.469   1.471   1.472   1.474   1.477
  1.479   1.481   1.481   1.485   1.488   1.492   1.494   1.496
  1.498   1.501   1.503   1.506   1.508   1.510   1.511   1.515
  1.520   1.521   1.523   1.528   1.529   1.531   1.536   1.538
  1.540   1.544   1.546   1.549   1.550   1.553   1.554   1.557
  1.558   1.560   1.563   1.563   1.567   1.569   1.570   1.574
  1.576   1.577   1.581   1.582   1.584   1.584   1.588   1.588
  1.591   1.594   1.596   1.601   1.604   1.607   1.613   1.615
  1.618   1.619   1.626   1.629   1.631   1.634   1.640   1.640
  1.646   1.647   1.656   1.660   1.664   1.665   1.670   1.670
  1.674   1.677   1.679   1.687   1.687   1.696   1.697   1.698
  1.700   1.702   1.707   1.713   1.714   1.716   1.718   1.720
  1.721   1.725   1.727   1.728   1.729   1.730   1.732   1.733
  1.735   1.736   1.741   1.742   1.743   1.744   1.747   1.749
  1.750   1.752   1.752   1.755   1.755   1.757   1.759   1.760
  1.762   1.763   1.764   1.765   1.767   1.769   1.769   1.771
  1.772   1.774   1.775   1.776   1.776   1.778   1.779   1.781
  1.782   1.782   1.783   1.784   1.786   1.786   1.788   1.789
  1.790   1.793   1.794   1.794   1.797   1.797   1.798   1.800
  1.803   1.804   1.806   1.806   1.808   1.809   1.811   1.812
  1.813   1.814   1.816   1.816   1.819   1.820   1.824   1.825
  1.827   1.830   1.831   1.834   1.834   1.837   1.842   1.843
  1.844   1.845   1.846   1.850   1.851   1.854   1.855   1.857
  1.858   1.860   1.863   1.864   1.865   1.867   1.870   1.871
  1.873   1.873   1.875   1.878   1.880   1.881   1.882   1.886
  1.888   1.891   1.892   1.893   1.897   1.897   1.902   1.904
  1.907   1.908   1.909   1.913   1.916   1.917   1.918   1.922
  1.927   1.930   1.932   1.934   1.936   1.938   1.939   1.941
  1.941   1.943   1.945   1.948   1.949   1.950   1.951   1.955
  1.956   1.957   1.959   1.960   1.966   1.969   1.970   1.974
  1.975   1.975   1.977   1.980   1.981   1.983   1.985   1.986
  1.989   1.990   1.990   1.991   1.995   1.996   1.998   1.999
  2.001   2.002   2.003   2.004   2.005   2.006   2.007   2.008
  2.009   2.011   2.012   2.014   2.016   2.016   2.017   2.018
  2.019   2.021   2.021   2.023   2.024   2.025   2.026   2.028
  2.030   2.030   2.031   2.032   2.033   2.034   2.036   2.039
  2.040   2.040   2.041   2.043   2.044   2.045   2.047   2.048
  2.050   2.052   2.053   2.054   2.055   2.056   2.058   2.059
  2.060   2.061   2.062   2.065   2.067   2.067   2.070   2.071
  2.073   2.074   2.075   2.076   2.078   2.078   2.080   2.081
  2.082   2.083   2.084   2.085   2.086   2.088   2.089   2.091
  2.092   2.093   2.097   2.098   2.099   2.101   2.102   2.104
  2.105   2.106   2.108   2.113   2.113   2.114   2.116   2.117
  2.119   2.124   2.126   2.128   2.130   2.132   2.134   2.138
  2.142   2.144   2.148   2.152   2.155   2.156   2.160   2.163
  2.164   2.171   2.176   2.184   2.185   2.187   2.191   2.192
  2.196   2.199   2.209   2.212   2.216   2.217   2.221   2.223
  2.223   2.235   2.236   2.237   2.242   2.245   2.245   2.247
  2.250   2.251   2.253   2.253   2.257   2.258   2.263   2.267
  2.268   2.269   2.270   2.272   2.275   2.281   2.283   2.286
  2.287   2.288   2.290   2.291   2.292   2.294   2.296   2.299
  2.300   2.301   2.305   2.307   2.310   2.312   2.319   2.322
  2.322   2.323   2.324   2.327   2.328   2.331   2.335   2.336
  2.338   2.341   2.346   2.349   2.351   2.355   2.358   2.360
  2.360   2.362   2.363   2.364   2.366   2.368   2.371   2.372
  2.373   2.374   2.375   2.379   2.379   2.380   2.381   2.385
  2.386   2.388   2.390   2.392   2.392   2.394   2.395   2.396
  2.400   2.402   2.403   2.405   2.407   2.409   2.413   2.415
  2.416   2.417   2.419   2.419   2.421   2.422   2.425   2.426
  2.429   2.432   2.434   2.435   2.439   2.439   2.444   2.446
  2.449   2.450   2.451   2.454   2.457   2.458   2.459   2.461
  2.463   2.465   2.467   2.471   2.471   2.472   2.474   2.478
  2.480   2.481   2.483   2.486   2.488   2.488   2.490   2.491
  2.492   2.495   2.496   2.498   2.499   2.501   2.504   2.507
  2.508   2.511   2.514   2.516   2.518   2.520   2.521   2.523
  2.525   2.526   2.529   2.532   2.534   2.535   2.537   2.540
  2.544   2.547   2.548   2.552   2.554   2.557   2.564   2.567
  2.568   2.572   2.572   2.577   2.578   2.581   2.582   2.588
  2.589   2.591   2.596   2.597   2.601   2.603   2.605   2.607
  2.611   2.611   2.612   2.615   2.618   2.621   2.622   2.623
  2.625   2.625   2.627   2.629   2.632   2.633   2.634   2.637
  2.638   2.639   2.641   2.642   2.643   2.644   2.646   2.647
  2.650   2.651   2.652   2.655   2.657   2.659   2.659   2.662
  2.662   2.665   2.666   2.666   2.667   2.669   2.670   2.671
  2.676   2.677   2.677   2.679   2.682   2.684   2.686   2.689
  2.691   2.691   2.694   2.695   2.699   2.702   2.706   2.708
  2.711   2.712   2.715   2.717   2.718   2.720   2.723   2.725
  2.728   2.730   2.733   2.736   2.738   2.738   2.742   2.743
  2.747   2.751   2.751   2.755   2.757   2.759   2.762   2.764
  2.766   2.767   2.768   2.769   2.770   2.773   2.776   2.780
  2.780   2.782   2.783   2.788   2.792   2.794   2.796   2.801
  2.802   2.803   2.807   2.811   2.813   2.813   2.816   2.817
  2.823   2.825   2.832   2.833   2.833   2.836   2.840   2.842
  2.844   2.848   2.851   2.852   2.858   2.859   2.859   2.863
  2.863   2.866   2.867   2.869   2.870   2.873   2.874   2.877
  2.880   2.883   2.885   2.886   2.888   2.889   2.890   2.892
  2.894   2.896   2.896   2.898   2.901   2.902   2.903   2.906
  2.909   2.909   2.912   2.914   2.916   2.917   2.919   2.920
  2.923   2.923   2.924   2.927   2.928   2.931   2.936   2.939
  2.940   2.943   2.944   2.948   2.950   2.952   2.952   2.955
  2.955   2.960   2.965   2.968   2.973   2.975   2.981   2.981
  2.986   2.989   2.995   2.996   2.999   3.000   3.007   3.008
  3.012   3.014   3.016   3.017   3.019   3.021   3.024   3.025
  3.027   3.030   3.032   3.037   3.039   3.041   3.045   3.048
  3.050   3.052   3.054   3.059   3.060   3.061   3.066   3.070
  3.073   3.075   3.078   3.080   3.086   3.087   3.098   3.105
  3.106   3.113   3.118   3.120   3.123   3.138   3.141   3.146
  3.153   3.154   3.155   3.158   3.174   3.177   3.186   3.189
  3.198   3.202   3.214   3.219   3.222   3.227   3.237   3.241
  3.242   3.250   3.251   3.252   3.255   3.263   3.275   3.284
  3.290   3.297   3.306   3.313   3.321   3.323   3.324   3.327
  3.333   3.338   3.345   3.346   3.349   3.367   3.368   3.392
  3.393   3.405   3.405   3.414   3.414   3.418   3.425   3.440
  3.442   3.449   3.464   3.466   3.468   3.487   3.490   3.494
  3.498   3.498   3.509   3.513   3.513   3.532   3.549   3.552
  3.555   3.559   3.559   3.565   3.578   3.582   3.592   3.610
  3.617   3.624   3.684   3.699   3.853   3.876   3.984   4.005
  4.065   4.072   4.080   4.082   4.092   4.094   4.098   4.101
  4.103   4.105   4.106   4.110   4.114   4.118   4.120   4.123
  4.130   4.132   4.139   4.142   4.146   4.147   4.149   4.150
  4.152   4.158   4.162   4.166   4.170   4.172   4.175   4.177
  4.180   4.189   4.197   4.203   4.211   4.213   4.216   4.220
  4.239   4.244   4.245   4.247   4.250   4.254   4.256   4.257
  4.261   4.266   4.274   4.275   4.279   4.283   4.285   4.291
  4.295   4.302   4.311   4.321   4.374   4.376   4.389   4.391
  4.394   4.400   4.405   4.409   4.410   4.413   4.415   4.416
  4.420   4.421   4.424   4.430   4.436   4.441   4.462   4.472
  4.476   4.476   4.502   4.504   4.532   4.536   4.548   4.555
  4.558   4.562   4.599   4.623   4.625   4.634   4.635   4.638
  4.641   4.657   4.675   4.676   4.695   4.696   4.698   4.699
  4.701   4.703   4.708   4.713   4.745   4.749   4.783   4.801
  4.827   4.832   4.862   4.865   4.867   4.870   4.883   4.893
  4.905   4.906   4.959   4.966   4.968   4.972   4.974   4.981
  4.987   4.994   5.001   5.008   5.169   5.177   5.182   5.193
  5.198   5.201   5.207   5.211   5.305   5.323   5.335   5.351
  5.358   5.366
 --------------------------------------------------------------
 
          Ground-State Mulliken Net Atomic Charges

     Atom                 Charge (a.u.)
  ----------------------------------------
      1 O                    -0.446254
      2 C                    -0.080379
      3 H                     0.123483
      4 H                     0.126132
      5 H                     0.136827
      6 O                    -0.504229
      7 C                     0.585806
      8 C                    -0.263128
      9 H                     0.135432
     10 H                     0.129621
     11 C                    -0.180406
     12 H                     0.139186
     13 H                     0.116751
     14 C                    -0.177984
     15 H                     0.113778
     16 H                     0.108403
     17 C                    -0.004230
     18 C                     0.061038
     19 C                    -0.096778
     20 H                     0.100864
     21 C                    -0.081059
     22 H                     0.091305
     23 C                    -0.076506
     24 H                     0.084524
     25 C                    -0.087271
     26 H                     0.089600
     27 C                    -0.098606
     28 H                     0.090002
     29 C                     0.002648
     30 C                    -0.008342
     31 C                    -0.002020
     32 C                    -0.008071
     33 C                    -0.017679
     34 C                     0.010784
     35 C                    -0.020432
     36 C                    -0.028904
     37 C                    -0.001081
     38 C                    -0.008436
     39 C                    -0.086684
     40 C                    -0.016278
     41 C                    -0.003078
     42 C                     0.001641
     43 C                    -0.007865
     44 C                    -0.014721
     45 C                    -0.090501
     46 C                     0.040880
     47 C                     0.002809
     48 C                     0.001086
     49 C                     0.002049
     50 C                    -0.017112
     51 C                    -0.001530
     52 C                    -0.004022
     53 C                     0.023768
     54 C                    -0.006608
     55 C                     0.023442
     56 C                    -0.008741
     57 C                     0.017177
     58 C                     0.005848
     59 C                     0.006244
     60 C                     0.027935
     61 C                    -0.022286
     62 C                     0.006877
     63 C                     0.015845
     64 C                    -0.008839
     65 C                    -0.033402
     66 C                    -0.025196
     67 C                    -0.031407
     68 C                    -0.014047
     69 C                     0.023329
     70 C                     0.055847
     71 C                    -0.007908
     72 C                    -0.011061
     73 C                    -0.010534
     74 C                    -0.004666
     75 C                     0.036800
     76 C                     0.010552
     77 C                    -0.028810
     78 C                    -0.005512
     79 C                     0.003274
     80 C                    -0.005603
     81 C                     0.005194
     82 C                     0.018372
     83 C                     0.022998
     84 C                    -0.001337
     85 C                     0.023330
     86 C                     0.034179
     87 C                    -0.017733
     88 C                     0.025683
     89 O                    -0.463163
     90 C                    -0.090057
     91 H                     0.130553
     92 H                     0.134075
     93 H                     0.127107
     94 O                    -0.478246
     95 C                     0.582559
     96 C                    -0.249721
     97 H                     0.116234
     98 H                     0.134429
     99 C                    -0.196871
    100 H                     0.107775
    101 H                     0.127536
    102 C                    -0.160778
    103 H                     0.130577
    104 H                     0.110490
    105 C                     0.005997
    106 C                     0.091310
    107 C                    -0.112483
    108 H                     0.095571
    109 C                    -0.084218
    110 H                     0.096365
    111 C                    -0.082663
    112 H                     0.082413
    113 C                    -0.083370
    114 H                     0.097714
    115 C                    -0.118080
    116 H                     0.091613
    117 C                    -0.035501
    118 C                     0.002889
    119 C                     0.035215
    120 C                    -0.002091
    121 C                    -0.022064
    122 C                     0.012644
    123 C                     0.014567
    124 C                    -0.012206
    125 C                     0.018779
    126 C                    -0.035975
    127 C                    -0.083697
    128 C                    -0.000807
    129 C                     0.008645
    130 C                    -0.013351
    131 C                     0.003132
    132 C                     0.012578
    133 C                    -0.092254
    134 C                     0.031869
    135 C                     0.000312
    136 C                     0.024560
    137 C                    -0.016720
    138 C                     0.005137
    139 C                     0.007158
    140 C                     0.015828
    141 C                     0.035153
    142 C                    -0.004363
    143 C                     0.011773
    144 C                    -0.015620
    145 C                    -0.008231
    146 C                    -0.012382
    147 C                     0.001084
    148 C                     0.009739
    149 C                    -0.017374
    150 C                    -0.004907
    151 C                    -0.019637
    152 C                    -0.023081
    153 C                    -0.001968
    154 C                     0.004564
    155 C                     0.027216
    156 C                    -0.019129
    157 C                    -0.013348
    158 C                    -0.014872
    159 C                    -0.011627
    160 C                     0.021679
    161 C                     0.030150
    162 C                    -0.014109
    163 C                    -0.029819
    164 C                     0.017414
    165 C                    -0.015792
    166 C                     0.016585
    167 C                    -0.010310
    168 C                     0.017884
    169 C                     0.008791
    170 C                     0.012423
    171 C                    -0.000071
    172 C                     0.001953
    173 C                    -0.011915
    174 C                     0.011072
    175 C                     0.018185
    176 C                    -0.022490
  ----------------------------------------
  Sum of atomic charges =     0.000000

 -----------------------------------------------------------------
                    Cartesian Multipole Moments
 -----------------------------------------------------------------
    Charge (ESU x 10^10)
                 0.0000
    Dipole Moment (Debye)
         X       3.1846      Y      -5.1504      Z      -3.1928
       Tot       6.8456
    Quadrupole Moments (Debye-Ang)
        XX    -789.6734     XY       6.0143     YY    -772.6150
        XZ     -24.2717     YZ       0.1604     ZZ    -791.3596
    Octopole Moments (Debye-Ang^2)
       XXX     723.1978    XXY    -213.9310    XYY     117.2202
       YYY    -357.3820    XXZ    -322.7666    XYZ     -76.7680
       YYZ    -125.8324    XZZ     277.0307    YZZ     -26.7895
       ZZZ    -223.9761
    Hexadecapole Moments (Debye-Ang^3)
      XXXX -172413.7184   XXXY     440.8293   XXYY  -33822.7134
      XYYY    1384.9869   YYYY  -34594.7925   XXXZ   -3754.2759
      XXYZ    -992.9809   XYYZ   -1063.3699   YYYZ      42.2878
      XXZZ  -30823.9441   XYZZ    1159.0972   YYZZ   -9630.9449
      XZZZ   -1818.8458   YZZZ    -178.7178   ZZZZ  -24324.2446
 -----------------------------------------------------------------
Archival summary:
1\1\mn366\SP\ProcedureUnspecified\6-31G**\428\afmv_a\SunOct706:58:412018SunOct706:58:412018\0\\#,ProcedureUnspecified,6-31G**,\\0,1\O\C,1,1.25711\O,2,1.38379,1,126.207\C,3,1.45889,2,119.693,1,8.42102,0\H,4,1.09676,3,115.077,2,-70.8263,0\H,4,1.09696,3,111.353,2,48.3016,0\H,4,1.09745,3,109.695,2,169.358,0\C,2,1.54533,1,119.352,3,-171.002,0\H,8,1.09667,2,104.404,1,-160.519,0\H,8,1.09741,2,108.363,1,-52.7496,0\C,8,1.54774,2,110.974,1,76.5096,0\H,11,1.09748,8,113.422,2,58.5976,0\H,11,1.09772,8,100.137,2,175.077,0\C,11,1.52955,8,111.016,2,-68.7202,0\H,14,1.09728,11,102.357,8,-46.0626,0\H,14,1.09749,11,107.282,8,73.0231,0\C,14,1.51174,11,114.081,8,-166.192,0\C,17,1.50395,14,112.464,11,-51.6966,0\C,18,1.41186,17,121.072,14,93.512,0\H,19,1.08569,18,121.817,17,0.849419,0\C,18,1.41344,17,118.65,14,-79.6868,0\H,21,1.08559,18,115.918,17,-2.90516,0\C,21,1.41325,18,118.851,17,-173.728,0\H,23,1.08666,21,117.598,18,170.588,0\C,23,1.38372,21,117.127,18,-18.02,0\H,25,1.08585,23,118.782,21,-166.38,0\C,25,1.36997,23,125.362,21,17.0352,0\H,27,1.08619,25,121.218,23,171.686,0\C,17,1.5236,14,118.861,11,160.267,0\C,29,1.48696,17,129.675,14,148.173,0\C,30,1.3637,29,118.371,17,63.8342,0\C,31,1.41029,30,119.111,29,148.637,0\C,32,1.38966,31,119.292,30,-0.153395,0\C,33,1.3629,32,121.156,31,-4.71505,0\C,34,1.38188,33,120.458,32,5.38436,0\C,35,1.39819,34,121.253,33,-142.012,0\C,32,1.39883,31,108.847,30,-146.135,0\C,37,1.36789,32,110.504,31,2.35029,0\C,38,1.35098,37,104.393,32,0.655945,0\C,39,1.40508,38,120.69,37,152.875,0\C,40,1.40862,39,116.421,38,-17.9592,0\C,41,1.39386,40,109.192,39,-133.133,0\C,42,1.36016,41,120.49,40,147.132,0\C,43,1.36612,42,124.158,41,-140.455,0\C,42,1.38461,41,110.036,40,0.7332,0\C,45,1.36581,42,117.894,41,139.464,0\C,44,1.38562,43,109.861,42,141.196,0\C,33,1.41545,32,120.01,31,-138.806,0\C,48,1.40501,33,119.382,32,-4.77288,0\C,49,1.37202,48,116.584,33,145.032,0\C,50,1.40068,49,103.797,48,-141.129,0\C,51,1.39044,50,119.689,49,140.775,0\C,52,1.41006,51,120.187,50,-143.165,0\C,53,1.40553,52,108.295,51,140.317,0\C,54,1.3741,53,107.059,52,5.95857,0\C,55,1.39154,54,110.425,53,-4.38441,0\C,56,1.40409,55,122.42,54,-141.062,0\C,57,1.396,56,117.908,55,138.04,0\C,58,1.38991,57,104.839,56,-147.313,0\C,44,1.41678,43,119.122,42,2.39645,0\C,60,1.39173,44,123.512,43,134.816,0\C,61,1.38372,60,108.052,44,-140.521,0\C,62,1.39079,61,115.767,60,144.724,0\C,62,1.40352,61,110.824,60,-0.150106,0\C,61,1.40902,60,117.359,44,2.5416,0\C,65,1.38832,61,121.939,60,-2.18342,0\C,65,1.40308,61,120.396,60,-139.338,0\C,67,1.39761,65,109.67,61,143.057,0\C,67,1.39946,65,119.01,61,-0.379063,0\C,68,1.40585,67,108.593,65,0.0824287,0\C,64,1.41065,62,120.952,61,149.772,0\C,41,1.41775,40,122.072,39,15.0126,0\C,72,1.38377,41,120.666,40,-145.743,0\C,72,1.38921,41,119.18,40,-3.57688,0\C,73,1.4172,72,117.703,41,3.54937,0\C,75,1.39436,73,120.353,72,138.585,0\C,59,1.41895,58,107.882,57,3.65537,0\C,77,1.37072,59,111.511,58,-3.27786,0\C,53,1.42101,52,121.41,51,2.78781,0\C,79,1.40825,53,117.24,52,-2.2494,0\C,80,1.38534,79,121.503,53,-1.20767,0\C,81,1.38416,80,118.469,79,136.197,0\C,63,1.42217,62,118.187,61,-142.067,0\C,83,1.40137,63,107.652,62,141.304,0\C,84,1.35935,83,120.631,63,-143.159,0\C,85,1.39282,84,122.247,83,142.171,0\C,84,1.39559,83,110.713,63,6.89849,0\C,29,1.50032,17,60.8436,14,-108.109,0\C,36,3.20587,35,115.48,34,-114.229,0\C,89,1.35485,36,132.588,35,-72.1404,0\C,90,1.35921,89,123.507,36,-108.471,0\C,91,1.37141,90,117.403,89,-3.13473,0\C,89,1.38185,36,87.7411,35,40.5782,0\C,90,1.38843,89,110.327,36,101.757,0\C,94,1.37349,90,122.891,89,150.23,0\C,95,1.37975,94,118.486,90,-133.071,0\C,96,1.3837,95,111.443,94,136.16,0\C,95,1.3957,94,119.398,90,-4.19973,0\C,96,1.39803,95,118.611,94,-7.07618,0\C,99,1.37766,96,124.703,95,-3.92067,0\C,100,1.36473,99,106.172,96,143.25,0\C,101,1.39191,100,107.207,99,2.68927,0\C,102,1.33685,101,112.053,100,2.53623,0\C,94,1.39897,90,106.02,89,1.74321,0\C,98,1.39962,95,117.948,94,6.08448,0\C,101,1.40297,100,121.411,99,-135.946,0\C,106,1.38342,101,120.268,100,137.691,0\C,107,1.36427,106,120.666,101,4.14264,0\C,108,1.34879,107,121.786,106,-5.44542,0\C,109,1.39135,108,107.78,107,-141.675,0\C,110,1.39342,109,111.049,108,0.971204,0\C,108,1.40379,107,117.954,106,-143.052,0\C,98,1.40397,95,112.008,94,-137.277,0\C,111,1.40413,110,120.531,109,141.57,0\C,114,1.39836,111,119.728,110,2.80131,0\C,89,1.40549,36,86.198,35,159.348,0\C,92,1.40609,91,105.466,90,-138.286,0\C,107,1.41229,106,109.978,101,-147.89,0\C,118,1.38624,107,107.422,106,4.11381,0\C,118,1.41147,107,118.934,106,144.295,0\C,120,1.38527,118,119.331,107,3.19125,0\C,121,1.40731,120,109.014,118,-138.868,0\C,122,1.3681,121,107.643,120,-0.749615,0\C,123,1.35831,122,108.799,121,1.86069,0\C,123,1.39798,122,121.103,121,147.861,0\C,125,1.36848,123,119.921,122,-136.474,0\C,126,1.39078,125,107.616,123,136.948,0\C,125,1.40811,123,117.793,122,-3.3049,0\C,128,1.40652,125,111.567,123,-141.773,0\C,124,1.40989,123,119.353,122,143.299,0\C,130,1.38873,124,117.235,123,-136.614,0\C,130,1.40229,124,122.007,123,3.24455,0\C,114,1.41406,111,119.037,110,-134.923,0\C,133,1.40861,114,111.11,111,145.199,0\C,103,1.4147,102,122.164,101,-150.494,0\C,135,1.35359,103,117.633,102,134.048,0\C,135,1.39961,103,116.982,102,0.791041,0\C,137,1.3944,135,107.862,103,140.673,0\C,113,1.41773,98,121.078,95,139.434,0\C,139,1.41231,113,121.036,98,7.58189,0\C,140,1.40737,139,108.004,113,-147.442,0\C,139,1.41401,113,121.582,98,-141.526,0\C,142,1.4153,139,118.397,113,10.8434,0\C,105,1.42317,98,121.137,95,-142.572,0\C,119,1.4302,118,108.418,107,-3.30778,0\C,92,1.43674,91,123.949,90,2.33044,0\C,142,1.49031,139,107.627,113,154.604,0\C,147,1.47457,142,125.832,139,148.68,0\C,148,1.50082,147,118.037,142,-4.45373,0\C,149,1.43604,148,116.371,147,-68.8093,0\H,150,1.08572,149,122.564,148,-4.94272,0\C,150,1.39232,149,119.029,148,-179.853,0\H,152,1.08637,150,117.642,149,167.715,0\C,152,1.38521,150,118.347,149,2.73307,0\H,154,1.08606,152,118.792,150,169.938,0\C,154,1.3684,152,122.988,150,-10.9518,0\H,156,1.08647,154,116.981,152,-174.421,0\C,156,1.3705,154,120.702,152,14.311,0\H,158,1.08621,156,120.224,154,178.964,0\C,147,1.5067,142,116.888,139,-138.62,0\C,148,1.6179,147,119.104,142,-150.654,0\H,161,1.09707,148,109.489,147,-42.2702,0\H,161,1.09737,148,106.029,147,79.098,0\C,161,1.57577,148,108.879,147,-157.176,0\H,164,1.09704,161,118.443,148,-50.3345,0\H,164,1.09738,161,108.796,148,60.5123,0\C,164,1.53726,161,108.276,148,176.043,0\H,167,1.09728,164,110.606,161,-57.0105,0\H,167,1.098,164,117.857,161,62.4692,0\C,167,1.49043,164,114.164,161,-169.27,0\O,170,1.24694,167,121.736,164,-19.4807,0\O,170,1.31915,167,117.964,164,160.809,0\C,172,1.41881,170,121.135,167,166.556,0\H,173,1.096,172,108.696,170,177.875,0\H,173,1.09732,172,109.227,170,-61.1479,0\H,173,1.09743,172,108.5,170,57.3765,0\\\@

 Total job time:  834.93s(wall), 7092.75s(cpu) 
 Sun Oct  7 06:58:41 2018

        *************************************************************
        *                                                           *
        *  Thank you very much for using Q-Chem.  Have a nice day.  *
        *                                                           *
        *************************************************************


