
Running Job 1 of 1 ./8/17.qcin
qchem ./8/17.qcin_7545.0 /tmpu/cab_g/afmv_a/scratch_qchem/qchem7545/ 1
/tmpu/appuserlic/qchem4.4/serial-multicore/exe/qcprog.exe_s ./8/17.qcin_7545.0 /tmpu/cab_g/afmv_a/scratch_qchem/qchem7545/
Check license passed

                  Welcome to Q-Chem
     A Quantum Leap Into The Future Of Chemistry


 Q-Chem 4.4, Q-Chem, Inc., Pleasanton, CA (2016)

 Y. Shao,  Z. Gan,  E. Epifanovsky,  A. T. B. Gilbert,  M. Wormit,  
 J. Kussmann,  A. W. Lange,  A. Behn,  J. Deng,  X. Feng,  D. Ghosh,  
 M. Goldey,  P. R. Horn,  L. D. Jacobson,  I. Kaliman,  F. Rob,  
 R. Z. Khaliullin,  T. Kus,  A. Landau,  J. Liu,  E. I. Proynov,  Y. M. Rhee,  
 R. M. Richard,  M. A. Rohrdanz,  R. P. Steele,  E. J. Sundstrom,  
 H. L. Woodcock III,  P. M. Zimmerman,  D. Zuev,  B. Albrecht,  E. Alguire,  
 B. Austin,  S. A. Baeppler,  G. J. O. Beran,  Y. A. Bernard,  E. Berquist,  
 K. Brandhorst,  K. B. Bravaya,  S. T. Brown,  D. Casanova,  C.-M. Chang,  
 Y. Chen,  S. H. Chien,  K. D. Closser,  M. P. Coons,  D. L. Crittenden,  
 S. Dasgupta,  M. Diedenhofen,  R. A. DiStasio Jr.,  H. Do,  A. D. Dutoi,  
 R. G. Edgar,  P.-T. Fang,  S. Fatehi,  Q. Feng,  L. Fusti-Molnar,  
 A. Ghysels,  A. Golubeva-Zadorozhnaya,  J. Gomes,  A. Gunina,  
 M. W. D. Hanson-Heine,  P. H. P. Harbach,  A. W. Hauser,  J. E. Herr,  
 E. G. Hohenstein,  Z. C. Holden,  K. Hui,  T.-C. Jagau,  H. Ji,  B. Kaduk,  
 K. Khistyaev,  Jaehoon Kim,  Jihan Kim,  R. A. King,  P. Klunzinger,  
 K. Koh,  D. Kosenkov,  T. Kowalczyk,  C. M. Krauter,  A. Kunitsa,  
 K. U. Lao,  A. Laurent,  K. V. Lawler,  J. Lee,  D. Lefrancois,  S. Lehtola,  
 S. V. Levchenko,  C. Y. Lin,  Y.-S. Lin,  F. Liu,  E. Livshits,  
 R. C. Lochan,  A. Luenser,  P. Manohar,  S. F. Manzer,  S.-P. Mao,  Y. Mao,  
 N. Mardirossian,  A. V. Marenich,  L. A. Martinez-Martinez,  S. A. Maurer,  
 N. J. Mayhall,  J.-M. Mewes,  A. F. Morrison,  K. Nanda,  T. S. Nguyen-Beck,  
 C. M. Oana,  R. Olivares-Amaya,  D. P. O'Neill,  J. A. Parkhill,  
 T. M. Perrine,  R. Peverati,  P. A. Pieniazek,  F. Plasser,  A. Prociuk,  
 D. R. Rehn,  E. Rosta,  N. J. Russ,  N. Sergueev,  S. M. Sharada,  
 S. Sharma,  D. W. Small,  A. Sodt,  T. Stauch,  T. Stein,  D. Stuck,  
 Y.-C. Su,  A. J. W. Thom,  T. Tsuchimochi,  L. Vogt,  O. Vydrov,  T. Wang,  
 M. A. Watson,  J. Wenzel,  A. White,  C. F. Williams,  V. Vanovschi,  
 K. Yao,  S. Yeganeh,  S. R. Yost,  Z.-Q. You,  I. Y. Zhang,  X. Zhang,  
 Y. Zhao,  B. R. Brooks,  G. K. L. Chan,  D. M. Chipman,  C. J. Cramer,  
 W. A. Goddard III,  M. S. Gordon,  W. J. Hehre,  A. Klamt,  
 H. F. Schaefer III,  M. W. Schmidt,  C. D. Sherrill,  D. G. Truhlar,  
 A. Warshel,  X. Xu,  A. Aspuru-Guzik,  R. Baer,  A. T. Bell,  N. A. Besley,  
 J.-D. Chai,  A. Dreuw,  B. D. Dunietz,  T. R. Furlani,  S. R. Gwaltney,  
 C.-P. Hsu,  Y. Jung,  J. Kong,  D. S. Lambrecht,  W. Liang,  C. Ochsenfeld,  
 V. A. Rassolov,  L. V. Slipchenko,  J. E. Subotnik,  T. Van Voorhis,  
 J. M. Herbert,  A. I. Krylov,  P. M. W. Gill,  M. Head-Gordon

 Contributors to earlier versions of Q-Chem not listed above: 
 R. D. Adamson,  J. Baker,  E. F. C. Byrd,  A. K. Chakraborty,  C.-L. Cheng,  
 H. Dachsel,  R. J. Doerksen,  G. Hawkins,  A. Heyden,  S. Hirata,  
 G. Kedziora,  F. J. Keil,  C. Kelley,  P. P. Korambath,  W. Kurlancheek,  
 A. M. Lee,  M. S. Lee,  D. Liotard,  I. Lotan,  P. E. Maslen,  N. Nair,  
 D. Neuhauser,  R. Olson,  B. Peters,  J. Ritchie,  N. E. Schultz,  
 N. Shenvi,  A. C. Simmonett,  K. S. Thanthiriwatte,  Q. Wu,  W. Zhang

 Please cite Q-Chem as follows:
 Y. Shao et al., Mol. Phys. 113, 184-215 (2015)
 DOI: 10.1080/00268976.2014.952696

 Q-Chem 4.4.2 for Intel X86 Linux

 Parts of Q-Chem use Armadillo 5.200.1 (Boston Tea Smuggler).
 http://arma.sourceforge.net/

 Q-Chem begins on Sun Oct  7 06:58:42 2018  

Host: 
0

     Scratch files written to /tmpu/cab_g/afmv_a/scratch_qchem/qchem7545//
 Dec716 11556_ 22328  22283 4050   
Processing $rem in /tmpu/appuserlic/qchem4.4/serial-multicore/config/preferences.
 MEM_TOTAL  2000 
FILE_GEOM_ORG=        593

Checking the input file for inconsistencies... 	...done.

--------------------------------------------------------------
User input:
--------------------------------------------------------------
$comment
SP
$end

$rem
MEM_STATIC 5000
MEM_TOTAL 20000
JOBTYPE SP
EXCHANGE B3LYP
BASIS 6-31g(d,p)
$end

$molecule
0 1
O          -6.316000      6.198000    -14.394000
C          -5.888000      7.471000    -14.921000
H          -5.536000      8.073000    -14.074000
H          -6.702000      7.877000    -15.535000
H          -4.969000      7.401000    -15.516000
O          -7.251000      5.596000    -16.335000
C          -6.982000      5.287000    -15.165000
C          -7.415000      4.043000    -14.444000
H          -6.502000      3.482000    -14.209000
H          -8.023000      3.526000    -15.198000
C          -8.255000      4.272000    -13.132000
H          -8.879000      5.140000    -13.379000
H          -8.920000      3.413000    -12.979000
C          -7.404000      4.425000    -11.914000
H          -6.639000      3.652000    -11.771000
H          -6.860000      5.346000    -12.162000
C          -8.205000      4.747000    -10.648000
C          -8.604000      6.204000    -10.569000
C          -9.790000      6.623000    -11.238000
H         -10.437000      5.902000    -11.730000
C         -10.179000      7.930000    -11.270000
H         -11.003000      8.312000    -11.865000
C          -9.406000      8.922000    -10.669000
H          -9.662000      9.977000    -10.668000
C          -8.222000      8.572000     -9.966000
H          -7.563000      9.344000     -9.579000
C          -7.811000      7.197000     -9.948000
H          -6.844000      6.921000     -9.537000
C          -8.922000      4.083000     -5.284000
C         -11.180000      4.355000     -6.078000
C         -12.271000     -0.120000     -5.448000
C          -6.438000      0.449000     -7.733000
C         -11.745000     -1.047000     -8.801000
C          -9.829000      4.706000     -6.126000
C          -8.198000     -1.579000     -8.442000
C         -10.954000      1.411000     -4.114000
C         -11.444000      2.870000     -9.801000
C          -6.919000      0.411000     -9.021000
C          -9.190000      3.665000    -10.136000
C         -10.695000      1.875000    -10.460000
C          -8.721000     -0.135000    -10.315000
C          -9.526000     -2.045000     -8.407000
C         -10.651000      4.543000     -8.250000
C         -11.099000     -1.786000     -6.571000
C          -7.966000      3.967000     -9.380000
C          -7.023000      2.876000     -9.134000
C         -12.029000     -1.189000     -7.444000
C          -7.937000     -0.171000     -4.611000
C         -10.083000     -0.785000     -4.604000
C          -9.974000      0.398000     -3.890000
C         -10.624000      2.810000     -4.220000
C          -6.646000      2.864000     -7.790000
C         -10.601000      3.938000     -9.537000
C         -11.603000      3.363000     -5.141000
C          -7.767000     -0.636000     -9.411000
C         -11.711000      4.223000     -7.337000
C         -11.028000      0.525000    -10.209000
C          -6.533000      1.504000     -5.704000
C         -12.122000      1.124000     -4.814000
C          -9.368000      2.260000    -10.701000
C          -8.288000      2.159000     -4.099000
C         -10.089000     -0.492000    -10.136000
C         -12.443000      2.472000     -8.851000
C          -8.705000     -1.817000     -6.239000
C          -7.655000     -1.560000     -7.149000
C         -12.857000      1.160000     -8.699000
C          -6.334000      1.649000     -7.097000
C          -7.240000      1.608000     -9.687000
C          -6.926000      0.136000     -5.554000
C          -8.163000      4.544000     -7.934000
C         -13.004000      2.219000     -6.755000
C          -8.376000      1.231000    -10.400000
C         -12.102000      0.211000     -9.417000
C          -7.213000      2.530000     -5.011000
C         -12.778000     -0.164000     -6.764000
C          -9.287000      3.181000     -4.263000
C         -11.245000     -1.142000     -5.296000
C         -12.547000      3.183000     -7.681000
C         -13.221000      1.022000     -7.406000
C          -9.521000      4.858000     -7.462000
C          -7.297000      3.899000     -7.098000
C          -8.846000     -1.109000     -5.085000
C         -12.466000      2.307000     -5.471000
C         -10.490000     -1.473000     -9.268000
C          -6.787000     -0.522000     -6.765000
C          -9.835000     -2.203000     -7.040000
C          -7.632000      3.679000     -5.698000
C          -8.586000      0.812000     -3.872000
O         -13.336000     -2.169000      6.429000
C         -14.631000     -1.830000      7.009000
H         -15.398000     -2.609000      6.921000
H         -15.068000     -0.949000      6.523000
H         -14.515000     -1.631000      8.082000
O         -14.130000     -2.189000      4.211000
C         -13.199000     -2.243000      5.054000
C         -11.774000     -2.615000      4.586000
H         -11.120000     -2.252000      5.388000
H         -11.498000     -1.951000      3.757000
C         -11.656000     -4.136000      4.325000
H         -10.584000     -4.211000      4.101000
H         -11.889000     -4.749000      5.205000
C         -12.477000     -4.548000      3.102000
H         -13.535000     -4.508000      3.391000
H         -12.205000     -3.780000      2.367000
C         -12.161000     -5.933000      2.585000
C         -12.219000     -6.977000      3.666000
C         -13.482000     -7.472000      4.063000
H         -14.336000     -7.089000      3.513000
C         -13.536000     -8.546000      4.980000
H         -14.502000     -9.013000      5.152000
C         -12.396000     -8.800000      5.722000
H         -12.468000     -9.459000      6.582000
C         -11.140000     -8.338000      5.429000
H         -10.270000     -8.685000      5.979000
C         -11.059000     -7.356000      4.376000
H         -10.088000     -6.921000      4.160000
C          -8.584000     -8.934000     -0.449000
C         -10.787000     -9.997000     -0.727000
C         -11.477000     -8.759000     -5.098000
C          -9.087000     -3.986000     -1.569000
C         -13.654000     -6.087000     -4.336000
C          -9.890000     -9.319000      0.052000
C         -11.028000     -3.682000     -3.596000
C          -9.502000     -9.520000     -3.948000
C         -13.872000     -7.434000     -0.493000
C         -10.409000     -3.561000     -1.288000
C         -12.547000     -6.290000      1.155000
C         -14.026000     -6.072000     -0.769000
C         -12.589000     -3.880000     -1.725000
C         -11.893000     -4.384000     -4.449000
C         -12.053000     -8.620000      0.585000
C         -11.674000     -6.483000     -5.649000
C         -11.099000     -6.090000      1.493000
C         -10.343000     -5.007000      0.742000
C         -12.868000     -6.966000     -5.180000
C          -8.021000     -6.357000     -3.921000
C          -9.473000     -7.453000     -5.281000
C          -8.829000     -8.420000     -4.468000
C          -9.209000     -9.936000     -2.619000
C          -9.093000     -5.450000      0.344000
C         -12.957000     -7.599000      0.581000
C         -10.428000    -10.305000     -2.077000
C         -11.396000     -3.427000     -2.260000
C         -12.092000     -9.575000     -0.452000
C         -14.172000     -5.655000     -2.136000
C          -7.706000     -5.754000     -1.596000
C         -10.848000     -9.728000     -4.275000
C         -13.209000     -5.342000      0.139000
C          -7.624000     -8.106000     -2.336000
C         -13.440000     -4.532000     -2.611000
C         -13.882000     -8.376000     -1.504000
C          -9.786000     -5.052000     -4.994000
C          -9.748000     -4.096000     -3.939000
C         -14.123000     -7.935000     -2.879000
C          -8.503000     -4.920000     -0.761000
C         -11.009000     -4.147000     -0.084000
C          -7.871000     -5.349000     -2.920000
C         -10.123000     -7.268000      1.267000
C         -12.695000     -9.702000     -2.802000
C         -12.410000     -4.313000     -0.402000
C         -14.202000     -6.608000     -3.163000
C          -7.497000     -7.121000     -1.286000
C         -12.788000     -8.351000     -4.882000
C          -8.326000     -9.217000     -1.830000
C         -10.829000     -7.629000     -5.600000
C         -13.047000     -9.452000     -1.454000
C         -13.415000     -8.826000     -3.682000
C         -10.651000     -8.478000      0.786000
C          -8.949000     -6.804000      0.642000
C          -8.944000     -6.215000     -4.929000
C         -11.405000    -10.171000     -3.102000
C         -13.128000     -4.819000     -3.955000
C          -8.782000     -4.253000     -2.894000
C         -11.150000     -5.213000     -5.294000
C          -8.156000     -7.639000     -0.185000
C          -7.878000     -7.735000     -3.684000
$end

--------------------------------------------------------------
 ----------------------------------------------------------------
             Standard Nuclear Orientation (Angstroms)
    I     Atom           X                Y                Z
 ----------------------------------------------------------------
    1      O      13.2822711800    -1.5341007916     1.2507684836
    2      C      14.6151688119    -1.0668415651     1.5448683277
    3      H      14.5157012677    -0.1484640877     2.1368193533
    4      H      15.1727183409    -1.0103849228     0.6012692761
    5      H      15.1472145941    -1.7102933374     2.2564743299
    6      O      14.0299000782    -3.0553037467    -0.2090611640
    7      C      13.0552428833    -2.5553127607     0.3712787073
    8      C      11.6076423379    -2.8716585844     0.1278778423
    9      H      11.2219382962    -3.3124080113     1.0555024080
   10      H      11.6549416718    -3.6123874482    -0.6811663612
   11      C      10.7058996720    -1.6543511308    -0.3015493668
   12      H      11.3678600350    -1.0642328828    -0.9475972994
   13      H       9.8769512754    -2.0236716221    -0.9179598878
   14      C      10.1285171651    -0.9172137428     0.8622340804
   15      H       9.6308682220    -1.5389318274     1.6165650109
   16      H      11.0440738265    -0.5408047950     1.3373691179
   17      C       9.3307613105     0.3275774489     0.4595909563
   18      C      10.2206868232     1.5073310427     0.1363185640
   19      C      10.7565727974     1.6163954997    -1.1792228329
   20      H      10.4730636536     0.9125919759    -1.9569098941
   21      C      11.6202124919     2.6129089819    -1.5280513838
   22      H      12.1460127693     2.6670036722    -2.4764884311
   23      C      12.0410875813     3.5558943109    -0.5918693351
   24      H      12.7303910518     4.3656679862    -0.8102481810
   25      C      11.5295613664     3.5192080276     0.7331061545
   26      H      11.9234813471     4.1870089494     1.4939628937
   27      C      10.6321379247     2.4600447784     1.0973510967
   28      H      10.3339829857     2.3285420512     2.1336892004
   29      C       5.0278945954     3.5768182374     1.2690681522
   30      C       5.3492937204     3.7279218790    -1.1135468591
   31      C       1.5849139493     1.1828686287    -2.0958680347
   32      C       4.6394446271    -1.1842526686     2.8675435040
   33      C       3.3510607638    -1.8242267657    -2.5613964640
   34      C       5.8774495688     3.6566277425     0.1774506413
   35      C       3.3867507387    -2.7276000996     0.9279812521
   36      C       1.9765467410     2.8820819837    -0.4173854668
   37      C       6.8351214173     0.2454492398    -2.4553182156
   38      C       5.4139462345    -1.9652637715     2.0417602895
   39      C       8.0387695544     0.1065250364    -0.3680479342
   40      C       6.7335155105    -1.0652602158    -1.9483429078
   41      C       5.5934257475    -2.8295867177    -0.0654864803
   42      C       2.7914581321    -2.7521004823    -0.3475544957
   43      C       7.0792119180     2.3031545489    -1.2144928096
   44      C       1.4131487951    -1.0071441826    -1.3312703510
   45      C       7.9536780955     0.5625649609     1.0268366599
   46      C       7.1955171341    -0.2561509693     1.9728504981
   47      C       2.2617021188    -0.9616091657    -2.4543561977
   48      C       1.7719320652     0.7723534619     2.2953991540
   49      C       0.9413740153     0.7991642859     0.2237294154
   50      C       1.2949368991     2.0965299033     0.5598867329
   51      C       3.0884962063     3.7406417397    -0.0952356074
   52      C       6.3281574660     0.5487321183     2.7134309607
   53      C       7.5549009103     1.0034416715    -1.5451896780
   54      C       3.9304093122     3.7333078844    -1.2799801101
   55      C       4.7949797573    -2.7910263314     1.0918078199
   56      C       6.0288229728     2.9097616591    -1.9814868627
   57      C       5.5550671465    -1.7916506014    -2.2311970418
   58      C       3.9572386094     0.9405991727     3.3759632143
   59      C       2.0437772419     2.4620021144    -1.7423782831
   60      C       7.4143524260    -1.2355398306    -0.7339702520
   61      C       2.9816566043     2.8539807188     2.1625853627
   62      C       4.9674191763    -2.6717465422    -1.3359652293
   63      C       5.7159289491     0.8078213520    -3.1553545194
   64      C       1.6045352898    -1.3226679752     1.0575027538
   65      C       2.6069744157    -1.9701623565     1.8141505087
   66      C       4.6174724628     0.0601088193    -3.5428636369
   67      C       5.0578590156     0.0744284086     3.1773230148
   68      C       6.6513457945    -1.4839239418     1.5763998945
   69      C       2.8249084860     0.1470154594     3.0066037938
   70      C       7.3213902996     1.9796614369     1.2607249259
   71      C       3.9871830004     2.1424224277    -3.1082014348
   72      C       6.6705746209    -1.9838619398     0.2761359788
   73      C       4.5898900336    -1.2582744651    -3.0456164901
   74      C       4.0697691791     2.2812712089     2.9455443923
   75      C       2.3697639723     0.3845200216    -2.9546409634
   76      C       3.6245872243     3.6899788112     1.1842559666
   77      C       0.9552648733     0.3330837812    -1.0950325067
   78      C       5.3851822612     2.1170383885    -2.9067697658
   79      C       3.5603453817     0.9001794222    -3.5305057829
   80      C       6.9637223572     2.8099778907     0.0996081232
   81      C       6.4530284887     1.8889415735     2.3107700067
   82      C       1.2759091403    -0.0182946683     1.2660120586
   83      C       3.2609232259     2.9442656581    -2.2276117608
   84      C       3.6079644603    -2.7091447720    -1.5004956143
   85      C       3.2274931441    -1.1591227734     2.7813605699
   86      C       1.6793875807    -1.8888935737    -0.2620739610
   87      C       5.2700211587     2.7353788609     2.3790530633
   88      C       1.8283564304     2.1062430890     1.9065987502
   89      O      -8.2504191717     7.8513856591     0.1829162934
   90      C      -8.6535955325     8.7579131218    -0.8866643634
   91      H      -9.2789644895     8.3073001921    -1.6668794974
   92      H      -7.7828500419     9.1580911103    -1.4205050401
   93      H      -9.2344808476     9.5893354831    -0.4675043608
   94      O      -6.8785934790     6.5315544435    -1.2050677955
   95      C      -7.3267470573     6.8539735732    -0.0756740311
   96      C      -6.9999947026     5.9704670044     1.1493492510
   97      H      -7.1795844355     6.6231795525     2.0121370913
   98      H      -5.9121310494     5.8340843436     1.1969459081
   99      C      -7.8608266605     4.6842113111     1.1501439420
  100      H      -7.5603441517     4.2512221899     2.1130643347
  101      H      -8.9403397831     4.8817519812     1.1594767723
  102      C      -7.4554520844     3.7521689965     0.0071292540
  103      H      -7.8227199372     4.2003910919    -0.9249095208
  104      H      -6.3605954115     3.7535430234     0.0800674317
  105      C      -8.0077586807     2.3502160398     0.1290117002
  106      C      -9.4950245115     2.3358519538     0.3519355025
  107      C     -10.3486984497     2.5175749965    -0.7598291052
  108      H      -9.8588369428     2.6087777772    -1.7243096684
  109      C     -11.7428738233     2.3717630306    -0.5801212910
  110      H     -12.3666232414     2.3599530688    -1.4698550648
  111      C     -12.2223878746     2.4391051011     0.7161083646
  112      H     -13.2904744167     2.5558662791     0.8730254315
  113      C     -11.4649300819     2.3045113021     1.8496740670
  114      H     -11.9266752272     2.2356038234     2.8304146953
  115      C     -10.0360902436     2.2882512413     1.6551327422
  116      H      -9.4033783732     2.2468308296     2.5364284012
  117      C      -7.3476091636    -2.5825309777     2.6266696986
  118      C      -8.3055708359    -3.0540902199     0.4084714849
  119      C      -4.5477116224    -4.9299066350    -1.4554469438
  120      C      -3.2086911133     0.3169660533     1.9540722406
  121      C      -3.6091877312    -2.0451501369    -3.2601380124
  122      C      -8.2042142846    -2.2437287185     1.5058206027
  123      C      -1.9543889778    -0.3977410892    -0.4717360480
  124      C      -5.5091423295    -5.1328235164     0.7438078697
  125      C      -7.2462104202    -0.4035683111    -2.4187955914
  126      C      -3.3501579836     1.0917772501     0.7763945538
  127      C      -7.3405227417     1.2262722003    -0.6538621385
  128      C      -6.1321071075     0.4193866719    -2.6097272666
  129      C      -3.6740474652     1.0412682751    -1.4456933038
  130      C      -2.0154733141    -1.2813806379    -1.5598940566
  131      C      -8.4837429495    -0.9246764843    -0.4002811598
  132      C      -2.6127749171    -3.6274067100    -1.7419777307
  133      C      -7.1666792084     1.2830939711     0.8352643546
  134      C      -5.7511722742     1.3950001817     1.3758595073
  135      C      -3.4950591563    -3.4040126063    -2.7669438744
  136      C      -3.0435611702    -3.1721249886     2.2521943685
  137      C      -3.1381709579    -4.5487025045     0.4479761636
  138      C      -4.2567058859    -4.8372001859     1.2704375320
  139      C      -6.6640054613    -4.6086547403     1.3893187069
  140      C      -5.5547496127     0.5449254266     2.4510078919
  141      C      -7.9345071084    -0.0033199916    -1.2423709437
  142      C      -7.5216789851    -4.2498202753     0.3638822372
  143      C      -2.7673108331     0.7527210497    -0.4410778656
  144      C      -8.4418466863    -2.2890687146    -0.7546729554
  145      C      -4.9231206907    -0.1609377554    -3.1249644962
  146      C      -4.1704054696    -1.2614509657     3.2258502129
  147      C      -5.6773261218    -5.2099562138    -0.6445990444
  148      C      -6.0983283449     1.3699560172    -1.5513653648
  149      C      -5.2876820248    -3.4527506407     3.0357796116
  150      C      -3.6747992511     0.1683988176    -2.5284672160
  151      C      -7.2078341193    -1.7475950014    -2.7377070455
  152      C      -1.7163378893    -2.5742295817     0.2899052855
  153      C      -1.7701573615    -1.1969284291     0.6484439854
  154      C      -5.9941046949    -2.2956790600    -3.3456969705
  155      C      -4.3117975201     0.0616192105     2.7184217976
  156      C      -4.7024998745     1.6030893181     0.5259082679
  157      C      -3.0030282316    -1.8176538804     2.7042232371
  158      C      -7.6534102307     0.0809775650     1.6774906056
  159      C      -7.0182935607    -3.8142648796    -1.9994665757
  160      C      -4.8577146652     1.5737836748    -0.9116349656
  161      C      -4.8850729332    -1.5191787522    -3.4678518871
  162      C      -5.3013308486    -2.0771683415     3.4789963166
  163      C      -4.6541139612    -4.2128687174    -2.6413542619
  164      C      -6.5434922752    -3.7593237250     2.4771074725
  165      C      -3.2913667586    -4.5954892308    -0.9469485831
  166      C      -7.8400442136    -2.6628278992    -1.9502045760
  167      C      -5.9311075331    -3.6190757478    -2.9160383102
  168      C      -8.2642740065    -0.9906061777     1.0045873958
  169      C      -6.6803112289    -0.2555214741     2.6387625387
  170      C      -2.4184203056    -3.5431708771     1.0861408328
  171      C      -6.9003628452    -4.6262971864    -0.8589592855
  172      C      -2.8890632528    -0.9982301420    -2.6159018292
  173      C      -2.4233996586    -0.8212183219     1.8657962009
  174      C      -1.8736573974    -2.5959308702    -1.1069471142
  175      C      -6.5458849846    -1.5731229754     3.1445874775
  176      C      -4.1439319713    -4.0301086518     2.4211622166
 ----------------------------------------------------------------
 Molecular Point Group                 C1    NOp =  1
 Largest Abelian Subgroup              C1    NOp =  1
 Nuclear Repulsion Energy = 33562.9821131829 hartrees
 There are      462 alpha and      462 beta electrons
 Requested basis set is 6-31G(d,p)
 There are 676 shells and 2360 basis functions

 Total QAlloc Memory Limit  20000 MB
 Mega-Array Size      4888 MB
 MEM_STATIC part      5000 MB
 A cutoff of  1.0D-08 yielded  36814 shell pairs
 There are    521474 function pairs
 
 -------------------------------------------------------
 OpenMP Integral Computing Module                       
 Release: version 1.0, May 2013, Q-Chem Inc. Pittsburgh 
 -------------------------------------------------------
 Integral Job Info:
 Integral job number is                      11
 Integral operator is                         1
 short-range coefficients                     0
 long-range coefficients              100000000
 Omega coefficients                           0
 if combine SR and LR in K                    0
 Integral screening is                        0
 Integral computing path is                   2
 max size of driver memory is            800000
 size of driver memory is                593474
 size of scratch memory is              2260544
 max col of scratch BK array               1296
 max len of scratch array in speh3          155
 max len of scratch index in speh4           18
 max int batch size is                      520
 min int batch size is                       52
 fixed nKL is                                52
 max L of basis functions is                  2
 order of int derivative is                   0
 number of shells is                        676
 number of basis is                        2360
 number of cartesian basis is              2360
 number of contracted shell pairs         36814
 number of primitive shell pairs         112154
 maxK2 (contraction) of shell pair           36
 max number of K2 of shell pair               1
 max number of CS2 of shell pair           7132
 max number of PS2 of shell pair          34080
 mem total for path MDJ                 1489688
 -------------------------------------------------------
 Smallest overlap matrix eigenvalue = 2.43E-04

 Scale SEOQF with 1.000000e-02/1.000000e-02/1.000000e-01

 Standard Electronic Orientation quadrupole field applied
 Nucleus-field energy     =    -0.0000001319 hartrees
 Guess from superposition of atomic densities
 Warning:  Energy on first SCF cycle will be non-variational
 A restricted hybrid HF-DFT SCF calculation will be
 performed using Pulay DIIS extrapolation
 Exchange:     0.2000 Hartree-Fock + 0.0800 Slater + 0.7200 B88
 Correlation:  0.1900 VWN1RPA + 0.8100 LYP
 Using SG-1 standard quadrature grid
 SCF converges when DIIS error is below 1.0E-05
 using 16 threads for integral computing 
 -------------------------------------------------------
 OpenMP BLAS3 based DFT computing Module                
 Release: version 1.0, May 2013, Q-Chem Inc. Pittsburgh 
 -------------------------------------------------------
 ---------------------------------------
  Cycle       Energy         DIIS Error
 ---------------------------------------
    1   -5857.9844248355      1.82E-02
    2   -5803.1237457149      1.29E-03
    3   -5802.2821434409      1.82E-03
    4   -5804.0059444496      6.30E-04
    5   -5804.2186291035      2.69E-04
    6   -5804.2589393324      1.38E-04
    7   -5804.2721954476      5.02E-05
    8   -5804.2733330675      3.26E-05
    9   -5804.2741277572      9.78E-06 Convergence criterion met
 ---------------------------------------
 SCF time:  CPU 7074.08 s  wall 824.05 s
 SCF   energy in the final basis set = -5804.2741277572
 Total energy in the final basis set = -5804.2741277572
 
 --------------------------------------------------------------
 
                    Orbital Energies (a.u.)
 --------------------------------------------------------------
 
 Alpha MOs
 -- Occupied --
-19.203 -19.188 -19.137 -19.130 -10.324 -10.317 -10.251 -10.245
-10.238 -10.237 -10.236 -10.234 -10.234 -10.234 -10.229 -10.226
-10.226 -10.225 -10.224 -10.224 -10.223 -10.222 -10.222 -10.222
-10.221 -10.221 -10.221 -10.221 -10.221 -10.220 -10.220 -10.220
-10.220 -10.220 -10.220 -10.219 -10.219 -10.219 -10.219 -10.219
-10.218 -10.218 -10.218 -10.218 -10.217 -10.217 -10.217 -10.217
-10.217 -10.217 -10.217 -10.217 -10.217 -10.216 -10.216 -10.216
-10.216 -10.216 -10.215 -10.215 -10.215 -10.215 -10.215 -10.215
-10.214 -10.214 -10.214 -10.214 -10.214 -10.214 -10.213 -10.213
-10.213 -10.213 -10.213 -10.213 -10.213 -10.213 -10.213 -10.213
-10.213 -10.212 -10.212 -10.212 -10.212 -10.212 -10.212 -10.212
-10.212 -10.211 -10.211 -10.211 -10.211 -10.211 -10.211 -10.211
-10.211 -10.211 -10.211 -10.210 -10.210 -10.210 -10.210 -10.210
-10.210 -10.209 -10.209 -10.209 -10.209 -10.209 -10.209 -10.209
-10.209 -10.209 -10.208 -10.208 -10.208 -10.208 -10.208 -10.208
-10.208 -10.208 -10.207 -10.207 -10.207 -10.206 -10.205 -10.205
-10.205 -10.204 -10.204 -10.204 -10.204 -10.203 -10.203 -10.202
-10.202 -10.201 -10.201 -10.200 -10.200 -10.199 -10.198 -10.197
-10.196 -10.194 -10.193 -10.193  -1.088  -1.081  -0.998  -0.994
 -0.982  -0.979  -0.966  -0.961  -0.960  -0.960  -0.959  -0.956
 -0.932  -0.929  -0.928  -0.924  -0.922  -0.922  -0.921  -0.919
 -0.918  -0.917  -0.895  -0.894  -0.890  -0.884  -0.882  -0.882
 -0.872  -0.872  -0.852  -0.851  -0.843  -0.839  -0.839  -0.837
 -0.835  -0.834  -0.822  -0.818  -0.810  -0.804  -0.798  -0.796
 -0.795  -0.793  -0.792  -0.790  -0.790  -0.786  -0.784  -0.781
 -0.770  -0.770  -0.768  -0.766  -0.766  -0.764  -0.761  -0.760
 -0.749  -0.748  -0.742  -0.742  -0.732  -0.732  -0.717  -0.715
 -0.713  -0.711  -0.711  -0.710  -0.709  -0.708  -0.708  -0.706
 -0.706  -0.704  -0.703  -0.703  -0.702  -0.701  -0.672  -0.669
 -0.659  -0.657  -0.654  -0.652  -0.648  -0.644  -0.630  -0.627
 -0.627  -0.626  -0.625  -0.623  -0.621  -0.618  -0.616  -0.615
 -0.614  -0.613  -0.612  -0.611  -0.609  -0.609  -0.608  -0.608
 -0.606  -0.605  -0.600  -0.600  -0.569  -0.562  -0.561  -0.560
 -0.560  -0.559  -0.557  -0.557  -0.555  -0.553  -0.551  -0.550
 -0.535  -0.534  -0.532  -0.529  -0.527  -0.526  -0.525  -0.523
 -0.520  -0.519  -0.518  -0.517  -0.517  -0.515  -0.512  -0.510
 -0.506  -0.504  -0.502  -0.499  -0.488  -0.488  -0.487  -0.484
 -0.482  -0.481  -0.481  -0.480  -0.479  -0.476  -0.475  -0.473
 -0.471  -0.469  -0.469  -0.467  -0.466  -0.465  -0.464  -0.464
 -0.463  -0.462  -0.462  -0.461  -0.460  -0.460  -0.458  -0.456
 -0.454  -0.451  -0.450  -0.449  -0.448  -0.448  -0.444  -0.443
 -0.442  -0.440  -0.438  -0.438  -0.437  -0.435  -0.434  -0.432
 -0.431  -0.429  -0.428  -0.427  -0.426  -0.425  -0.425  -0.423
 -0.422  -0.421  -0.420  -0.419  -0.418  -0.418  -0.417  -0.415
 -0.415  -0.414  -0.413  -0.413  -0.413  -0.412  -0.411  -0.410
 -0.410  -0.409  -0.406  -0.406  -0.402  -0.400  -0.398  -0.394
 -0.393  -0.392  -0.388  -0.386  -0.386  -0.385  -0.385  -0.382
 -0.382  -0.377  -0.373  -0.369  -0.368  -0.367  -0.364  -0.364
 -0.362  -0.362  -0.362  -0.360  -0.359  -0.358  -0.358  -0.357
 -0.357  -0.356  -0.355  -0.355  -0.353  -0.352  -0.352  -0.351
 -0.348  -0.347  -0.346  -0.345  -0.345  -0.345  -0.343  -0.342
 -0.340  -0.339  -0.339  -0.338  -0.335  -0.335  -0.333  -0.332
 -0.331  -0.329  -0.327  -0.327  -0.327  -0.325  -0.323  -0.321
 -0.307  -0.300  -0.299  -0.293  -0.288  -0.284  -0.270  -0.269
 -0.268  -0.267  -0.266  -0.265  -0.264  -0.263  -0.263  -0.262
 -0.262  -0.260  -0.259  -0.258  -0.256  -0.254  -0.254  -0.252
 -0.249  -0.247  -0.244  -0.240  -0.225  -0.218  -0.214  -0.209
 -0.208  -0.207  -0.204  -0.202  -0.199  -0.195
 -- Virtual --
 -0.125  -0.122  -0.120  -0.115  -0.109  -0.101  -0.079  -0.074
 -0.072  -0.068  -0.060  -0.058  -0.054  -0.050  -0.027  -0.023
 -0.022  -0.019  -0.018  -0.016  -0.015  -0.015  -0.014  -0.012
 -0.009  -0.009  -0.008  -0.007  -0.006  -0.006  -0.004   0.003
  0.011   0.012   0.034   0.039   0.041   0.041   0.047   0.049
  0.050   0.053   0.054   0.059   0.060   0.063   0.067   0.069
  0.070   0.073   0.082   0.083   0.086   0.088   0.089   0.090
  0.094   0.096   0.098   0.100   0.104   0.105   0.105   0.108
  0.109   0.110   0.113   0.113   0.116   0.117   0.122   0.122
  0.124   0.126   0.127   0.128   0.130   0.131   0.135   0.137
  0.138   0.141   0.141   0.141   0.146   0.150   0.151   0.151
  0.157   0.158   0.158   0.163   0.163   0.164   0.166   0.166
  0.168   0.172   0.174   0.174   0.176   0.177   0.179   0.180
  0.183   0.185   0.187   0.188   0.189   0.190   0.191   0.192
  0.194   0.196   0.197   0.199   0.201   0.202   0.204   0.209
  0.209   0.211   0.213   0.215   0.216   0.218   0.219   0.221
  0.221   0.223   0.225   0.226   0.226   0.228   0.228   0.230
  0.232   0.233   0.233   0.234   0.236   0.238   0.240   0.241
  0.242   0.244   0.248   0.250   0.252   0.252   0.255   0.260
  0.265   0.270   0.271   0.274   0.274   0.276   0.277   0.280
  0.283   0.286   0.289   0.291   0.297   0.297   0.303   0.304
  0.309   0.310   0.312   0.314   0.314   0.317   0.317   0.318
  0.321   0.321   0.322   0.324   0.326   0.328   0.331   0.332
  0.334   0.336   0.339   0.340   0.343   0.345   0.347   0.348
  0.350   0.352   0.354   0.356   0.361   0.373   0.385   0.389
  0.392   0.392   0.397   0.399   0.400   0.402   0.406   0.406
  0.408   0.409   0.410   0.412   0.414   0.417   0.424   0.424
  0.429   0.430   0.432   0.436   0.439   0.442   0.445   0.448
  0.448   0.451   0.453   0.455   0.457   0.461   0.463   0.464
  0.466   0.467   0.469   0.471   0.472   0.474   0.476   0.477
  0.478   0.478   0.479   0.482   0.482   0.483   0.484   0.486
  0.488   0.489   0.490   0.490   0.493   0.494   0.496   0.497
  0.497   0.499   0.500   0.500   0.500   0.504   0.505   0.506
  0.507   0.507   0.507   0.508   0.509   0.510   0.511   0.512
  0.512   0.513   0.514   0.514   0.516   0.516   0.517   0.518
  0.519   0.519   0.521   0.522   0.524   0.524   0.525   0.526
  0.526   0.526   0.527   0.528   0.529   0.530   0.530   0.532
  0.534   0.534   0.534   0.535   0.535   0.537   0.538   0.539
  0.540   0.540   0.542   0.542   0.544   0.544   0.545   0.545
  0.546   0.547   0.548   0.549   0.549   0.550   0.550   0.551
  0.551   0.552   0.554   0.555   0.555   0.556   0.557   0.558
  0.558   0.559   0.560   0.561   0.562   0.563   0.563   0.563
  0.564   0.565   0.565   0.566   0.568   0.569   0.570   0.571
  0.572   0.572   0.572   0.573   0.574   0.575   0.576   0.576
  0.578   0.578   0.580   0.581   0.582   0.582   0.583   0.584
  0.585   0.586   0.587   0.587   0.588   0.588   0.589   0.590
  0.590   0.591   0.593   0.593   0.594   0.595   0.597   0.598
  0.598   0.600   0.601   0.601   0.602   0.602   0.603   0.605
  0.607   0.608   0.610   0.610   0.611   0.612   0.615   0.615
  0.617   0.617   0.618   0.620   0.620   0.621   0.622   0.623
  0.623   0.626   0.627   0.628   0.629   0.630   0.630   0.631
  0.632   0.632   0.635   0.636   0.637   0.637   0.638   0.639
  0.640   0.642   0.642   0.644   0.646   0.646   0.647   0.649
  0.650   0.650   0.651   0.652   0.653   0.653   0.654   0.655
  0.656   0.658   0.660   0.660   0.661   0.661   0.661   0.663
  0.664   0.665   0.665   0.666   0.667   0.669   0.669   0.670
  0.671   0.672   0.673   0.673   0.673   0.675   0.676   0.678
  0.679   0.680   0.683   0.685   0.685   0.687   0.688   0.688
  0.691   0.692   0.692   0.693   0.694   0.694   0.696   0.697
  0.698   0.699   0.701   0.702   0.703   0.704   0.706   0.707
  0.707   0.707   0.709   0.710   0.711   0.712   0.714   0.716
  0.716   0.717   0.718   0.719   0.721   0.722   0.722   0.724
  0.725   0.726   0.728   0.729   0.731   0.732   0.733   0.733
  0.735   0.737   0.739   0.741   0.743   0.743   0.744   0.747
  0.748   0.750   0.751   0.752   0.753   0.754   0.756   0.757
  0.758   0.759   0.761   0.762   0.763   0.764   0.767   0.768
  0.769   0.769   0.772   0.773   0.774   0.775   0.776   0.777
  0.779   0.780   0.781   0.782   0.783   0.785   0.785   0.789
  0.789   0.790   0.791   0.794   0.795   0.795   0.797   0.799
  0.799   0.800   0.800   0.802   0.803   0.803   0.804   0.805
  0.806   0.806   0.808   0.808   0.809   0.810   0.811   0.811
  0.812   0.813   0.814   0.815   0.815   0.816   0.817   0.817
  0.818   0.819   0.820   0.821   0.822   0.823   0.824   0.824
  0.825   0.827   0.829   0.829   0.831   0.832   0.832   0.832
  0.834   0.836   0.837   0.839   0.842   0.844   0.847   0.849
  0.849   0.853   0.855   0.857   0.858   0.863   0.864   0.867
  0.871   0.872   0.875   0.878   0.881   0.883   0.885   0.889
  0.893   0.895   0.896   0.898   0.899   0.902   0.903   0.907
  0.909   0.911   0.913   0.914   0.917   0.918   0.919   0.922
  0.925   0.926   0.929   0.931   0.933   0.934   0.936   0.936
  0.937   0.940   0.944   0.945   0.947   0.948   0.951   0.952
  0.954   0.954   0.959   0.961   0.963   0.967   0.969   0.973
  0.976   0.977   0.979   0.981   0.983   0.986   0.987   0.991
  0.991   0.992   0.993   0.999   0.999   1.004   1.006   1.007
  1.008   1.010   1.012   1.013   1.016   1.018   1.019   1.021
  1.023   1.023   1.025   1.027   1.028   1.032   1.033   1.034
  1.034   1.036   1.039   1.039   1.041   1.042   1.042   1.044
  1.047   1.047   1.050   1.051   1.055   1.057   1.058   1.062
  1.063   1.064   1.066   1.068   1.069   1.072   1.075   1.075
  1.076   1.077   1.079   1.080   1.081   1.083   1.085   1.086
  1.086   1.088   1.089   1.090   1.092   1.094   1.095   1.098
  1.100   1.102   1.103   1.104   1.105   1.108   1.109   1.111
  1.115   1.117   1.118   1.120   1.123   1.124   1.127   1.129
  1.131   1.132   1.134   1.137   1.139   1.141   1.145   1.147
  1.150   1.151   1.153   1.153   1.154   1.157   1.160   1.161
  1.163   1.164   1.166   1.167   1.169   1.170   1.172   1.173
  1.173   1.175   1.177   1.179   1.182   1.183   1.183   1.185
  1.187   1.189   1.190   1.192   1.195   1.197   1.197   1.200
  1.202   1.204   1.206   1.209   1.212   1.214   1.217   1.221
  1.222   1.225   1.229   1.231   1.234   1.240   1.244   1.245
  1.250   1.250   1.251   1.257   1.258   1.261   1.262   1.262
  1.264   1.265   1.268   1.268   1.269   1.274   1.275   1.276
  1.277   1.280   1.281   1.282   1.283   1.288   1.289   1.293
  1.294   1.297   1.300   1.303   1.306   1.311   1.312   1.316
  1.317   1.318   1.320   1.323   1.325   1.326   1.328   1.332
  1.336   1.337   1.340   1.342   1.345   1.348   1.349   1.350
  1.352   1.355   1.356   1.359   1.361   1.364   1.365   1.366
  1.368   1.370   1.371   1.374   1.375   1.380   1.381   1.384
  1.388   1.391   1.392   1.398   1.399   1.402   1.403   1.406
  1.409   1.411   1.413   1.416   1.418   1.421   1.423   1.425
  1.430   1.433   1.435   1.437   1.439   1.443   1.446   1.446
  1.449   1.450   1.455   1.456   1.457   1.459   1.461   1.462
  1.464   1.465   1.467   1.468   1.469   1.471   1.473   1.476
  1.478   1.481   1.483   1.484   1.490   1.492   1.495   1.497
  1.499   1.503   1.504   1.508   1.510   1.512   1.513   1.518
  1.521   1.522   1.526   1.528   1.530   1.535   1.538   1.539
  1.540   1.543   1.544   1.545   1.549   1.550   1.553   1.555
  1.561   1.561   1.563   1.565   1.567   1.570   1.572   1.575
  1.578   1.580   1.581   1.583   1.584   1.585   1.586   1.590
  1.592   1.595   1.599   1.603   1.605   1.609   1.612   1.617
  1.620   1.621   1.625   1.629   1.633   1.636   1.638   1.641
  1.644   1.645   1.648   1.653   1.657   1.666   1.667   1.668
  1.673   1.674   1.678   1.682   1.685   1.688   1.692   1.695
  1.698   1.700   1.703   1.707   1.712   1.713   1.717   1.718
  1.721   1.724   1.724   1.726   1.727   1.728   1.730   1.730
  1.732   1.733   1.737   1.738   1.741   1.743   1.744   1.745
  1.748   1.749   1.750   1.751   1.752   1.755   1.756   1.758
  1.759   1.760   1.761   1.763   1.763   1.767   1.768   1.769
  1.770   1.772   1.772   1.775   1.775   1.776   1.777   1.778
  1.780   1.780   1.783   1.784   1.785   1.787   1.788   1.790
  1.791   1.793   1.794   1.795   1.796   1.798   1.799   1.801
  1.802   1.804   1.806   1.806   1.808   1.808   1.808   1.811
  1.813   1.814   1.815   1.817   1.818   1.821   1.824   1.826
  1.829   1.830   1.832   1.832   1.835   1.837   1.840   1.841
  1.843   1.845   1.847   1.848   1.850   1.853   1.855   1.857
  1.859   1.859   1.861   1.862   1.866   1.867   1.868   1.870
  1.870   1.872   1.874   1.876   1.876   1.880   1.881   1.881
  1.883   1.885   1.887   1.889   1.892   1.894   1.895   1.899
  1.901   1.904   1.909   1.911   1.915   1.915   1.917   1.920
  1.923   1.924   1.925   1.928   1.931   1.933   1.937   1.937
  1.938   1.940   1.940   1.944   1.945   1.946   1.948   1.951
  1.954   1.956   1.956   1.957   1.959   1.961   1.963   1.964
  1.970   1.972   1.974   1.974   1.976   1.978   1.978   1.980
  1.982   1.985   1.987   1.990   1.991   1.993   1.994   1.995
  1.997   1.998   1.999   2.000   2.001   2.002   2.004   2.004
  2.005   2.007   2.008   2.009   2.012   2.013   2.014   2.015
  2.017   2.018   2.019   2.020   2.022   2.022   2.023   2.025
  2.026   2.027   2.029   2.030   2.033   2.033   2.034   2.035
  2.037   2.037   2.039   2.040   2.042   2.043   2.044   2.045
  2.047   2.048   2.049   2.050   2.051   2.054   2.054   2.056
  2.057   2.059   2.060   2.060   2.061   2.062   2.065   2.067
  2.067   2.069   2.070   2.072   2.074   2.076   2.078   2.080
  2.081   2.082   2.082   2.084   2.085   2.086   2.087   2.088
  2.090   2.093   2.094   2.095   2.099   2.101   2.102   2.102
  2.106   2.108   2.111   2.112   2.114   2.117   2.121   2.122
  2.125   2.129   2.129   2.133   2.135   2.139   2.141   2.145
  2.147   2.152   2.160   2.161   2.161   2.162   2.164   2.168
  2.170   2.176   2.182   2.186   2.190   2.191   2.197   2.198
  2.200   2.206   2.208   2.216   2.218   2.221   2.224   2.226
  2.230   2.233   2.235   2.238   2.240   2.244   2.247   2.248
  2.249   2.252   2.254   2.255   2.259   2.261   2.262   2.263
  2.265   2.267   2.268   2.270   2.272   2.273   2.275   2.278
  2.283   2.285   2.287   2.288   2.289   2.290   2.293   2.295
  2.296   2.299   2.300   2.303   2.305   2.307   2.308   2.312
  2.315   2.317   2.321   2.322   2.323   2.325   2.327   2.330
  2.334   2.337   2.339   2.340   2.345   2.350   2.352   2.354
  2.358   2.359   2.360   2.361   2.362   2.363   2.367   2.368
  2.371   2.372   2.372   2.374   2.376   2.378   2.379   2.382
  2.383   2.384   2.384   2.387   2.388   2.389   2.390   2.392
  2.395   2.396   2.399   2.400   2.401   2.404   2.406   2.409
  2.409   2.411   2.413   2.415   2.417   2.418   2.420   2.421
  2.424   2.425   2.427   2.430   2.434   2.437   2.438   2.439
  2.442   2.447   2.448   2.450   2.452   2.454   2.455   2.457
  2.460   2.462   2.464   2.466   2.467   2.469   2.471   2.473
  2.475   2.478   2.479   2.482   2.484   2.486   2.486   2.490
  2.492   2.492   2.496   2.500   2.502   2.503   2.507   2.508
  2.509   2.511   2.514   2.516   2.517   2.519   2.521   2.523
  2.525   2.526   2.528   2.530   2.531   2.533   2.534   2.540
  2.543   2.544   2.545   2.547   2.550   2.554   2.557   2.561
  2.564   2.566   2.569   2.572   2.574   2.578   2.579   2.582
  2.586   2.590   2.592   2.593   2.595   2.598   2.603   2.604
  2.606   2.609   2.610   2.612   2.612   2.615   2.616   2.618
  2.620   2.622   2.623   2.624   2.624   2.627   2.629   2.630
  2.632   2.633   2.635   2.636   2.637   2.639   2.640   2.641
  2.644   2.645   2.647   2.650   2.654   2.655   2.657   2.659
  2.660   2.662   2.664   2.664   2.666   2.666   2.669   2.669
  2.671   2.674   2.677   2.678   2.679   2.682   2.684   2.685
  2.686   2.687   2.690   2.692   2.696   2.700   2.701   2.705
  2.706   2.707   2.711   2.714   2.716   2.718   2.718   2.722
  2.725   2.725   2.730   2.732   2.733   2.737   2.738   2.742
  2.743   2.748   2.749   2.750   2.752   2.756   2.757   2.759
  2.763   2.764   2.765   2.765   2.768   2.770   2.772   2.774
  2.775   2.777   2.779   2.781   2.786   2.786   2.790   2.792
  2.795   2.802   2.802   2.803   2.806   2.812   2.813   2.814
  2.821   2.823   2.825   2.827   2.828   2.832   2.833   2.836
  2.839   2.844   2.846   2.846   2.851   2.852   2.853   2.857
  2.860   2.861   2.862   2.863   2.866   2.869   2.872   2.874
  2.876   2.879   2.880   2.882   2.884   2.885   2.887   2.889
  2.890   2.891   2.893   2.895   2.897   2.898   2.901   2.902
  2.903   2.905   2.909   2.910   2.911   2.914   2.916   2.917
  2.919   2.923   2.924   2.925   2.927   2.928   2.931   2.933
  2.935   2.938   2.941   2.944   2.946   2.946   2.949   2.952
  2.954   2.956   2.959   2.964   2.966   2.971   2.975   2.978
  2.982   2.984   2.990   2.993   2.995   2.998   3.003   3.005
  3.006   3.009   3.011   3.015   3.017   3.019   3.021   3.024
  3.024   3.026   3.030   3.031   3.035   3.037   3.040   3.043
  3.044   3.046   3.049   3.050   3.055   3.058   3.061   3.062
  3.068   3.071   3.074   3.075   3.084   3.091   3.096   3.105
  3.112   3.114   3.120   3.124   3.126   3.127   3.140   3.143
  3.150   3.155   3.156   3.157   3.167   3.171   3.176   3.183
  3.188   3.202   3.204   3.205   3.217   3.222   3.230   3.236
  3.238   3.247   3.250   3.252   3.263   3.267   3.279   3.284
  3.293   3.297   3.304   3.306   3.308   3.312   3.323   3.324
  3.328   3.333   3.336   3.345   3.347   3.366   3.375   3.385
  3.390   3.405   3.408   3.414   3.416   3.424   3.436   3.439
  3.442   3.443   3.457   3.465   3.466   3.477   3.489   3.491
  3.495   3.498   3.503   3.513   3.515   3.521   3.531   3.532
  3.549   3.560   3.562   3.565   3.580   3.581   3.589   3.592
  3.608   3.623   3.676   3.684   3.849   3.853   3.984   3.991
  4.066   4.069   4.073   4.086   4.087   4.089   4.096   4.098
  4.102   4.104   4.106   4.109   4.109   4.112   4.116   4.120
  4.122   4.125   4.131   4.132   4.139   4.142   4.142   4.146
  4.152   4.156   4.162   4.164   4.167   4.169   4.173   4.176
  4.177   4.181   4.185   4.195   4.200   4.208   4.216   4.231
  4.238   4.242   4.245   4.248   4.250   4.252   4.252   4.257
  4.261   4.270   4.271   4.276   4.279   4.287   4.288   4.294
  4.302   4.304   4.316   4.317   4.375   4.379   4.386   4.392
  4.398   4.399   4.401   4.404   4.410   4.410   4.413   4.417
  4.421   4.422   4.431   4.433   4.443   4.452   4.457   4.471
  4.476   4.477   4.503   4.504   4.535   4.535   4.545   4.547
  4.553   4.570   4.612   4.619   4.623   4.634   4.639   4.643
  4.643   4.666   4.677   4.690   4.692   4.696   4.697   4.698
  4.699   4.701   4.705   4.712   4.727   4.750   4.800   4.812
  4.827   4.843   4.846   4.860   4.866   4.869   4.882   4.884
  4.905   4.910   4.949   4.960   4.963   4.969   4.972   4.980
  4.985   4.992   4.999   5.002   5.154   5.168   5.176   5.182
  5.188   5.194   5.213   5.218   5.296   5.311   5.330   5.341
  5.364   5.372
 --------------------------------------------------------------
 
          Ground-State Mulliken Net Atomic Charges

     Atom                 Charge (a.u.)
  ----------------------------------------
      1 O                    -0.462946
      2 C                    -0.077078
      3 H                     0.122559
      4 H                     0.139099
      5 H                     0.121162
      6 O                    -0.483370
      7 C                     0.584160
      8 C                    -0.261254
      9 H                     0.130761
     10 H                     0.139145
     11 C                    -0.184715
     12 H                     0.116765
     13 H                     0.112756
     14 C                    -0.192952
     15 H                     0.105032
     16 H                     0.137428
     17 C                     0.004823
     18 C                     0.091396
     19 C                    -0.104626
     20 H                     0.092960
     21 C                    -0.083742
     22 H                     0.091802
     23 C                    -0.086205
     24 H                     0.089532
     25 C                    -0.094684
     26 H                     0.091977
     27 C                    -0.113341
     28 H                     0.090284
     29 C                     0.029632
     30 C                    -0.013792
     31 C                    -0.029618
     32 C                     0.002471
     33 C                    -0.042670
     34 C                     0.011564
     35 C                     0.026646
     36 C                     0.005756
     37 C                     0.004421
     38 C                    -0.005290
     39 C                    -0.072305
     40 C                    -0.008805
     41 C                    -0.030239
     42 C                    -0.000536
     43 C                     0.001030
     44 C                     0.010087
     45 C                    -0.099740
     46 C                     0.018241
     47 C                     0.012990
     48 C                    -0.009994
     49 C                     0.028510
     50 C                    -0.035154
     51 C                    -0.018374
     52 C                     0.013058
     53 C                     0.022094
     54 C                     0.001636
     55 C                    -0.008519
     56 C                    -0.004466
     57 C                     0.040560
     58 C                    -0.026355
     59 C                     0.015740
     60 C                    -0.004831
     61 C                     0.015898
     62 C                     0.009038
     63 C                    -0.001498
     64 C                    -0.002547
     65 C                    -0.039380
     66 C                     0.014334
     67 C                     0.011537
     68 C                     0.028627
     69 C                     0.000816
     70 C                     0.018508
     71 C                    -0.012111
     72 C                    -0.005221
     73 C                    -0.012433
     74 C                    -0.014417
     75 C                     0.014103
     76 C                    -0.017315
     77 C                    -0.022155
     78 C                     0.019590
     79 C                    -0.009639
     80 C                     0.003445
     81 C                    -0.003170
     82 C                     0.077087
     83 C                     0.003996
     84 C                     0.006517
     85 C                     0.003276
     86 C                    -0.011151
     87 C                    -0.001525
     88 C                    -0.015928
     89 O                    -0.463721
     90 C                    -0.089794
     91 H                     0.129603
     92 H                     0.134350
     93 H                     0.127159
     94 O                    -0.476938
     95 C                     0.582426
     96 C                    -0.249738
     97 H                     0.116083
     98 H                     0.134509
     99 C                    -0.196807
    100 H                     0.107579
    101 H                     0.127311
    102 C                    -0.159984
    103 H                     0.130641
    104 H                     0.110683
    105 C                     0.005405
    106 C                     0.091581
    107 C                    -0.111635
    108 H                     0.095316
    109 C                    -0.084273
    110 H                     0.095545
    111 C                    -0.082387
    112 H                     0.082293
    113 C                    -0.083770
    114 H                     0.097841
    115 C                    -0.117815
    116 H                     0.091849
    117 C                    -0.036168
    118 C                     0.002257
    119 C                     0.034357
    120 C                    -0.003160
    121 C                    -0.021702
    122 C                     0.012935
    123 C                     0.019732
    124 C                    -0.013715
    125 C                     0.022164
    126 C                    -0.037958
    127 C                    -0.081329
    128 C                    -0.003943
    129 C                     0.007740
    130 C                    -0.007553
    131 C                     0.002356
    132 C                     0.010224
    133 C                    -0.091935
    134 C                     0.031511
    135 C                     0.000244
    136 C                     0.025871
    137 C                    -0.016382
    138 C                     0.005497
    139 C                     0.008054
    140 C                     0.014892
    141 C                     0.034841
    142 C                    -0.003945
    143 C                     0.006064
    144 C                    -0.016068
    145 C                    -0.015779
    146 C                    -0.013272
    147 C                     0.002401
    148 C                     0.006851
    149 C                    -0.017141
    150 C                    -0.004475
    151 C                    -0.019896
    152 C                    -0.020166
    153 C                     0.003931
    154 C                     0.004661
    155 C                     0.027934
    156 C                    -0.018191
    157 C                    -0.014130
    158 C                    -0.015207
    159 C                    -0.012175
    160 C                     0.022472
    161 C                     0.032997
    162 C                    -0.013509
    163 C                    -0.029834
    164 C                     0.016930
    165 C                    -0.015742
    166 C                     0.016883
    167 C                    -0.010006
    168 C                     0.018967
    169 C                     0.009230
    170 C                     0.007286
    171 C                    -0.000192
    172 C                    -0.001933
    173 C                    -0.015662
    174 C                     0.013799
    175 C                     0.018005
    176 C                    -0.021988
  ----------------------------------------
  Sum of atomic charges =     0.000000

 -----------------------------------------------------------------
                    Cartesian Multipole Moments
 -----------------------------------------------------------------
    Charge (ESU x 10^10)
                 0.0000
    Dipole Moment (Debye)
         X      -1.6514      Y       5.0730      Z       2.4318
       Tot       5.8631
    Quadrupole Moments (Debye-Ang)
        XX    -748.1450     XY      -6.3706     YY    -793.4498
        XZ      14.4006     YZ       2.7528     ZZ    -804.6875
    Octopole Moments (Debye-Ang^2)
       XXX    -455.7154    XXY     919.4096    XYY    -239.6136
       YYY     426.3464    XXZ     307.1820    XYZ     -41.9693
       YYZ      14.1320    XZZ      73.3796    YZZ      60.5086
       ZZZ      18.8447
    Hexadecapole Moments (Debye-Ang^3)
      XXXX -206468.7913   XXXY    2225.1302   XXYY  -40647.1959
      XYYY   -3580.5624   YYYY  -35328.0684   XXXZ    4314.5937
      XXYZ    -718.2649   XYYZ     440.9461   YYYZ    -328.6130
      XXZZ  -37336.4309   XYZZ    -615.3726   YYZZ   -9259.0295
      XZZZ      78.1483   YZZZ      -1.5101   ZZZZ  -17471.7207
 -----------------------------------------------------------------
Archival summary:
1\1\mn366\SP\ProcedureUnspecified\6-31G**\428\afmv_a\SunOct707:12:432018SunOct707:12:432018\0\\#,ProcedureUnspecified,6-31G**,\\0,1\C\C,1,1.38832\C,1,1.40308,2,105.605\C,3,1.39761,1,109.67,2,-0.132939,0\C,3,1.39946,1,119.01,2,-143.569,0\C,4,1.40585,3,108.593,1,0.0824287,0\C,1,1.40902,2,121.939,3,-142.483,0\C,7,1.38372,1,122.177,2,135.36,0\C,8,1.39079,7,115.767,1,3.81547,0\C,7,1.39173,1,117.359,2,-2.18342,0\C,8,1.40352,7,110.824,1,-141.058,0\C,11,1.41065,8,120.952,7,149.772,0\C,10,1.41678,7,123.512,1,2.5416,0\C,13,1.36612,10,119.122,7,134.816,0\C,14,1.36016,13,124.158,10,2.39645,0\C,15,1.38461,14,120.03,13,2.63656,0\C,16,1.36581,15,117.894,14,-7.11227,0\C,13,1.38562,10,116.927,7,-1.16859,0\C,15,1.39386,14,120.49,13,-140.455,0\C,19,1.40862,15,109.192,14,147.132,0\C,20,1.40508,19,116.421,15,-133.133,0\C,21,1.35098,20,120.69,19,-17.9592,0\C,22,1.36789,21,104.393,20,152.875,0\C,23,1.39883,22,110.504,21,0.655945,0\C,24,1.38966,23,121.74,22,-142.639,0\C,25,1.3629,24,121.156,23,136.781,0\C,26,1.38188,25,120.458,24,5.38436,0\C,27,1.39819,26,121.253,25,-142.012,0\C,24,1.41029,23,108.847,22,2.35029,0\C,29,1.3637,24,119.111,23,-146.135,0\C,25,1.41545,24,120.01,23,2.68925,0\C,31,1.40501,25,119.382,24,-4.77288,0\C,32,1.37202,31,116.584,25,145.032,0\C,33,1.40068,32,103.797,31,-141.129,0\C,34,1.39044,33,119.689,32,140.775,0\C,35,1.41006,34,120.187,33,-143.165,0\C,36,1.40553,35,108.295,34,140.317,0\C,37,1.3741,36,107.059,35,5.95857,0\C,38,1.39154,37,110.425,36,-4.38441,0\C,39,1.40409,38,122.42,37,-141.062,0\C,40,1.396,39,117.908,38,138.04,0\C,41,1.38991,40,104.839,39,-147.313,0\C,19,1.41775,15,120.344,14,-1.65608,0\C,43,1.38377,19,120.666,15,-1.02223,0\C,43,1.38921,19,119.18,15,141.144,0\C,44,1.4172,43,117.703,19,3.54937,0\C,46,1.39436,44,120.353,43,138.585,0\C,42,1.41895,41,107.882,40,3.65537,0\C,48,1.37072,42,111.511,41,-3.27786,0\C,36,1.42101,35,121.41,34,2.78781,0\C,50,1.40825,36,117.24,35,-2.2494,0\C,51,1.38534,50,121.503,36,-1.20767,0\C,52,1.38416,51,118.469,50,136.197,0\C,9,1.42217,8,118.187,7,-142.067,0\C,54,1.40137,9,107.652,8,141.304,0\C,55,1.35935,54,120.631,9,-143.159,0\C,56,1.39282,55,122.247,54,142.171,0\C,55,1.39559,54,110.713,9,6.89849,0\C,30,1.48696,29,118.371,24,148.637,0\C,59,1.50032,30,118.062,29,-10.1969,0\C,59,1.5236,30,129.675,29,63.8342,0\C,61,1.50395,59,120.145,30,2.6253,0\C,62,1.41186,61,121.072,59,-118.909,0\H,63,1.08569,62,121.817,61,0.849419,0\C,62,1.41344,61,118.65,59,67.8926,0\H,65,1.08559,62,115.918,61,-2.90516,0\C,65,1.41325,62,118.851,61,-173.728,0\H,67,1.08666,65,117.598,62,170.588,0\C,67,1.38372,65,117.127,62,-18.02,0\H,69,1.08585,67,118.782,65,-166.38,0\C,69,1.36997,67,125.362,65,17.0352,0\H,71,1.08619,69,121.218,67,171.686,0\C,61,1.51174,59,118.861,30,148.173,0\H,73,1.09728,61,111.121,59,45.1838,0\H,73,1.09749,61,108.963,59,-79.8899,0\C,73,1.52955,61,114.081,59,160.267,0\H,76,1.09748,73,112.131,61,65.7876,0\H,76,1.09772,73,110.036,61,-56.2666,0\C,76,1.54774,73,111.016,61,-166.192,0\H,79,1.09667,76,113.775,73,173.894,0\H,79,1.09741,76,116.618,73,55.996,0\C,79,1.54533,76,110.974,73,-68.7202,0\O,82,1.25711,79,119.352,76,76.5096,0\O,82,1.38379,79,113.897,76,-95.5566,0\C,84,1.45889,82,119.693,79,179.846,0\H,85,1.09676,84,115.077,82,-70.8263,0\H,85,1.09696,84,111.353,82,48.3016,0\H,85,1.09745,84,109.695,82,169.358,0\C,1,3.0641,2,100.103,3,94.8991,0\C,89,1.39877,1,83.0075,2,56.0145,0\C,90,1.3662,89,121.162,1,-89.8392,0\C,91,1.3612,90,121.039,89,1.51076,0\C,90,1.38606,89,122.548,1,125.146,0\C,91,1.38953,90,108.187,89,-152.788,0\C,94,1.39054,91,110.681,90,3.03426,0\C,95,1.39812,94,119.69,91,133.503,0\C,92,1.41303,91,121.894,90,-143.396,0\C,97,1.40252,92,107.672,91,136.638,0\C,97,1.40653,92,114.644,91,0.233649,0\C,99,1.38521,97,121.824,92,-3.22642,0\C,98,1.40782,97,110.29,92,9.10311,0\C,101,1.41037,98,105.536,97,-5.0952,0\C,102,1.41122,101,119.029,98,-137.932,0\C,103,1.40835,102,120.711,101,1.60833,0\C,104,1.39365,103,120.81,102,-2.69615,0\C,105,1.4052,104,118.34,103,2.11789,0\C,106,1.36989,105,104.769,104,137.61,0\C,107,1.38612,106,111.13,105,-0.896875,0\C,108,1.37089,107,109.405,106,2.09543,0\C,109,1.40931,108,124.042,107,-145.507,0\C,110,1.35033,109,124.294,108,133.633,0\C,111,1.37975,110,108.708,109,-135.654,0\C,110,1.38414,109,114.967,108,-0.389498,0\C,113,1.37304,110,112,109,142.326,0\C,114,1.37798,113,123.889,110,-149.119,0\C,115,1.37276,114,122.425,113,135.881,0\C,112,1.39494,111,123.346,110,138.727,0\C,117,1.39624,112,118.34,111,-0.398319,0\C,118,1.39162,117,105.589,112,-142.453,0\C,116,1.39668,115,111.519,114,-136.675,0\C,120,1.37944,116,106.078,115,-2.7541,0\C,120,1.38555,116,119.955,115,136.448,0\C,117,1.40314,112,120.078,111,-144.041,0\C,118,1.40417,117,120.799,112,-2.16213,0\C,122,1.41041,120,123.922,116,6.32015,0\C,125,1.38819,122,116.269,120,-7.04677,0\C,124,1.41097,118,119.136,117,0.132345,0\C,108,1.41294,107,123.416,106,-148.983,0\C,128,1.40258,108,121.049,107,-2.30657,0\C,128,1.40901,108,117.797,107,143.923,0\C,130,1.38599,128,108.054,108,-146.486,0\C,121,1.41318,120,109.691,116,2.76616,0\C,122,1.41376,120,123.219,116,-139.034,0\C,133,1.40276,122,111.297,120,148.204,0\C,134,1.41256,133,119.899,122,-138.984,0\C,135,1.41459,134,118.449,133,2.17201,0\C,136,1.3621,135,111.024,134,143.686,0\C,137,1.37541,136,119.229,135,-148.554,0\C,138,1.40265,137,119.5,136,141.347,0\C,139,1.40653,138,108.837,137,-144.454,0\C,138,1.40691,137,119.972,136,-2.85492,0\C,141,1.3932,138,101.424,137,142.421,0\C,141,1.40026,138,123.239,137,-3.88343,0\C,143,1.39593,141,114.476,138,9.03155,0\C,144,1.40495,143,110.044,141,139.259,0\C,145,1.3656,144,109.893,143,-3.86686,0\C,143,1.46289,141,120.6,138,143.965,0\C,147,1.47001,143,118.035,141,-4.47964,0\C,147,1.50776,143,129.007,141,71.8258,0\C,149,1.51271,147,119.746,143,147.225,0\C,150,1.4144,149,123.453,147,-59.4296,0\H,151,1.08636,150,119.13,149,-2.56095,0\C,150,1.42468,149,118.576,147,125.4,0\H,153,1.08651,150,120.877,149,-4.68508,0\C,153,1.36404,150,122.021,149,176.615,0\H,155,1.08578,153,124.499,150,-172.172,0\C,155,1.39384,153,120.909,150,-1.52359,0\H,157,1.08562,155,124.142,153,-179.611,0\C,157,1.42076,155,120.013,153,2.48666,0\H,159,1.08629,157,120.448,155,-173.967,0\C,149,1.53233,147,120.215,143,-0.322608,0\H,161,1.09691,149,113.887,147,3.63941,0\H,161,1.09804,149,105.624,147,119.499,0\C,161,1.4937,149,113.416,147,-131.273,0\H,164,1.09705,161,108.17,149,63.3205,0\H,164,1.09718,161,115.249,149,-57.4086,0\C,164,1.57461,161,112.979,149,-175.915,0\H,167,1.09705,164,109.868,161,-32.639,0\H,167,1.09794,164,110.199,161,-155.933,0\C,167,1.50162,164,115.685,161,88.1475,0\O,170,1.23965,167,126.662,164,121.304,0\O,170,1.36672,167,114.952,164,-53.1637,0\C,172,1.44272,170,121.779,167,177.089,0\H,173,1.09704,172,112.975,170,79.2601,0\H,173,1.09714,172,107.297,170,-170.714,0\H,173,1.09746,172,108.105,170,-42.6684,0\\\@

 Total job time:  840.24s(wall), 7102.06s(cpu) 
 Sun Oct  7 07:12:43 2018

        *************************************************************
        *                                                           *
        *  Thank you very much for using Q-Chem.  Have a nice day.  *
        *                                                           *
        *************************************************************


