
Running Job 1 of 1 ./8/2.qcin
qchem ./8/2.qcin_9931.0 /tmpu/cab_g/afmv_a/scratch_qchem/qchem9931/ 1
/tmpu/appuserlic/qchem4.4/serial-multicore/exe/qcprog.exe_s ./8/2.qcin_9931.0 /tmpu/cab_g/afmv_a/scratch_qchem/qchem9931/
Check license passed

                  Welcome to Q-Chem
     A Quantum Leap Into The Future Of Chemistry


 Q-Chem 4.4, Q-Chem, Inc., Pleasanton, CA (2016)

 Y. Shao,  Z. Gan,  E. Epifanovsky,  A. T. B. Gilbert,  M. Wormit,  
 J. Kussmann,  A. W. Lange,  A. Behn,  J. Deng,  X. Feng,  D. Ghosh,  
 M. Goldey,  P. R. Horn,  L. D. Jacobson,  I. Kaliman,  F. Rob,  
 R. Z. Khaliullin,  T. Kus,  A. Landau,  J. Liu,  E. I. Proynov,  Y. M. Rhee,  
 R. M. Richard,  M. A. Rohrdanz,  R. P. Steele,  E. J. Sundstrom,  
 H. L. Woodcock III,  P. M. Zimmerman,  D. Zuev,  B. Albrecht,  E. Alguire,  
 B. Austin,  S. A. Baeppler,  G. J. O. Beran,  Y. A. Bernard,  E. Berquist,  
 K. Brandhorst,  K. B. Bravaya,  S. T. Brown,  D. Casanova,  C.-M. Chang,  
 Y. Chen,  S. H. Chien,  K. D. Closser,  M. P. Coons,  D. L. Crittenden,  
 S. Dasgupta,  M. Diedenhofen,  R. A. DiStasio Jr.,  H. Do,  A. D. Dutoi,  
 R. G. Edgar,  P.-T. Fang,  S. Fatehi,  Q. Feng,  L. Fusti-Molnar,  
 A. Ghysels,  A. Golubeva-Zadorozhnaya,  J. Gomes,  A. Gunina,  
 M. W. D. Hanson-Heine,  P. H. P. Harbach,  A. W. Hauser,  J. E. Herr,  
 E. G. Hohenstein,  Z. C. Holden,  K. Hui,  T.-C. Jagau,  H. Ji,  B. Kaduk,  
 K. Khistyaev,  Jaehoon Kim,  Jihan Kim,  R. A. King,  P. Klunzinger,  
 K. Koh,  D. Kosenkov,  T. Kowalczyk,  C. M. Krauter,  A. Kunitsa,  
 K. U. Lao,  A. Laurent,  K. V. Lawler,  J. Lee,  D. Lefrancois,  S. Lehtola,  
 S. V. Levchenko,  C. Y. Lin,  Y.-S. Lin,  F. Liu,  E. Livshits,  
 R. C. Lochan,  A. Luenser,  P. Manohar,  S. F. Manzer,  S.-P. Mao,  Y. Mao,  
 N. Mardirossian,  A. V. Marenich,  L. A. Martinez-Martinez,  S. A. Maurer,  
 N. J. Mayhall,  J.-M. Mewes,  A. F. Morrison,  K. Nanda,  T. S. Nguyen-Beck,  
 C. M. Oana,  R. Olivares-Amaya,  D. P. O'Neill,  J. A. Parkhill,  
 T. M. Perrine,  R. Peverati,  P. A. Pieniazek,  F. Plasser,  A. Prociuk,  
 D. R. Rehn,  E. Rosta,  N. J. Russ,  N. Sergueev,  S. M. Sharada,  
 S. Sharma,  D. W. Small,  A. Sodt,  T. Stauch,  T. Stein,  D. Stuck,  
 Y.-C. Su,  A. J. W. Thom,  T. Tsuchimochi,  L. Vogt,  O. Vydrov,  T. Wang,  
 M. A. Watson,  J. Wenzel,  A. White,  C. F. Williams,  V. Vanovschi,  
 K. Yao,  S. Yeganeh,  S. R. Yost,  Z.-Q. You,  I. Y. Zhang,  X. Zhang,  
 Y. Zhao,  B. R. Brooks,  G. K. L. Chan,  D. M. Chipman,  C. J. Cramer,  
 W. A. Goddard III,  M. S. Gordon,  W. J. Hehre,  A. Klamt,  
 H. F. Schaefer III,  M. W. Schmidt,  C. D. Sherrill,  D. G. Truhlar,  
 A. Warshel,  X. Xu,  A. Aspuru-Guzik,  R. Baer,  A. T. Bell,  N. A. Besley,  
 J.-D. Chai,  A. Dreuw,  B. D. Dunietz,  T. R. Furlani,  S. R. Gwaltney,  
 C.-P. Hsu,  Y. Jung,  J. Kong,  D. S. Lambrecht,  W. Liang,  C. Ochsenfeld,  
 V. A. Rassolov,  L. V. Slipchenko,  J. E. Subotnik,  T. Van Voorhis,  
 J. M. Herbert,  A. I. Krylov,  P. M. W. Gill,  M. Head-Gordon

 Contributors to earlier versions of Q-Chem not listed above: 
 R. D. Adamson,  J. Baker,  E. F. C. Byrd,  A. K. Chakraborty,  C.-L. Cheng,  
 H. Dachsel,  R. J. Doerksen,  G. Hawkins,  A. Heyden,  S. Hirata,  
 G. Kedziora,  F. J. Keil,  C. Kelley,  P. P. Korambath,  W. Kurlancheek,  
 A. M. Lee,  M. S. Lee,  D. Liotard,  I. Lotan,  P. E. Maslen,  N. Nair,  
 D. Neuhauser,  R. Olson,  B. Peters,  J. Ritchie,  N. E. Schultz,  
 N. Shenvi,  A. C. Simmonett,  K. S. Thanthiriwatte,  Q. Wu,  W. Zhang

 Please cite Q-Chem as follows:
 Y. Shao et al., Mol. Phys. 113, 184-215 (2015)
 DOI: 10.1080/00268976.2014.952696

 Q-Chem 4.4.2 for Intel X86 Linux

 Parts of Q-Chem use Armadillo 5.200.1 (Boston Tea Smuggler).
 http://arma.sourceforge.net/

 Q-Chem begins on Sun Oct  7 10:20:58 2018  

Host: 
0

     Scratch files written to /tmpu/cab_g/afmv_a/scratch_qchem/qchem9931//
 Dec716 11556_ 22328  22283 4050   
Processing $rem in /tmpu/appuserlic/qchem4.4/serial-multicore/config/preferences.
 MEM_TOTAL  2000 
FILE_GEOM_ORG=        593

Checking the input file for inconsistencies... 	...done.

--------------------------------------------------------------
User input:
--------------------------------------------------------------
$comment
SP
$end

$rem
MEM_STATIC 5000
MEM_TOTAL 20000
JOBTYPE SP
EXCHANGE B3LYP
BASIS 6-31g(d,p)
$end

$molecule
0 1
O         -19.789000     -1.743000     -7.490000
C         -20.585000     -2.980000     -7.485000
H         -20.679000     -3.368000     -6.463000
H         -20.153000     -3.789000     -8.086000
H         -21.599000     -2.707000     -7.805000
O         -21.439000     -0.640000     -6.236000
C         -20.307000     -0.613000     -6.804000
C         -19.519000      0.705000     -6.923000
H         -18.598000      0.415000     -6.401000
H         -19.995000      1.526000     -6.372000
C         -19.175000      1.141000     -8.378000
H         -18.520000      0.449000     -8.921000
H         -20.177000      1.134000     -8.823000
C         -18.495000      2.520000     -8.382000
H         -19.067000      3.272000     -7.824000
H         -17.529000      2.411000     -7.873000
C         -18.170000      3.131000     -9.769000
C         -18.352000      2.242000    -10.948000
C         -19.656000      2.110000    -11.463000
H         -20.468000      2.466000    -10.836000
C         -19.892000      1.300000    -12.596000
H         -20.903000      1.207000    -12.981000
C         -18.888000      0.666000    -13.299000
H         -19.207000      0.044000    -14.131000
C         -17.569000      0.882000    -12.875000
H         -16.777000      0.342000    -13.385000
C         -17.321000      1.670000    -11.714000
H         -16.274000      1.709000    -11.428000
C         -14.196000      6.391000    -11.898000
C         -16.186000      6.996000    -13.198000
C         -16.788000     11.041000    -11.270000
C         -15.100000      6.806000     -6.978000
C         -19.225000     10.006000     -9.059000
C         -15.364000      6.025000    -12.544000
C         -16.849000      8.871000     -6.523000
C         -14.687000      9.945000    -11.942000
C         -19.536000      6.457000    -11.049000
C         -16.436000      6.529000     -6.850000
C         -18.448000      4.630000     -9.976000
C         -19.835000      6.533000     -9.673000
C         -18.513000      7.218000     -7.208000
C         -17.588000      9.833000     -7.242000
C         -17.597000      5.543000    -12.198000
C         -17.119000     11.246000     -9.058000
C         -17.000000      4.175000     -9.704000
C         -16.323000      4.737000     -8.472000
C         -18.394000     10.983000     -9.674000
C         -13.553000      9.377000     -8.725000
C         -14.795000     10.928000     -9.753000
C         -14.069000     10.212000    -10.685000
C         -14.503000      8.669000    -12.489000
C         -15.005000      5.058000     -8.729000
C         -18.667000      5.381000    -11.298000
C         -15.667000      8.354000    -13.161000
C         -17.309000      7.544000     -6.565000
C         -17.520000      6.710000    -12.975000
C         -19.928000      7.886000     -9.091000
C         -13.489000      6.950000     -8.543000
C         -15.964000     10.406000    -12.180000
C         -19.063000      5.555000     -9.022000
C         -13.182000      8.022000    -10.631000
C         -19.265000      8.159000     -7.844000
C         -19.468000      7.602000    -11.787000
C         -15.407000     10.303000     -7.541000
C         -15.488000      9.113000     -6.800000
C         -19.609000      8.889000    -11.226000
C         -14.412000      6.064000     -7.945000
C         -17.046000      5.537000     -7.548000
C         -13.582000      8.186000     -7.931000
C         -15.920000      4.461000    -10.760000
C         -17.986000      9.067000    -12.754000
C         -18.375000      5.951000     -7.790000
C         -19.851000      9.050000     -9.854000
C         -13.257000      6.857000     -9.895000
C         -18.136000     10.854000    -11.062000
C         -13.811000      7.733000    -11.891000
C         -16.150000     11.308000    -10.005000
C         -18.457000      7.724000    -12.804000
C         -18.733000      9.830000    -11.830000
C         -16.250000      5.093000    -11.933000
C         -14.717000      4.857000    -10.089000
C         -14.394000     10.432000     -8.527000
C         -16.578000      9.400000    -12.936000
C         -18.807000      9.449000     -7.842000
C         -14.522000      8.119000     -6.907000
C         -16.738000     10.712000     -7.863000
C         -13.819000      5.830000    -10.685000
C         -13.336000      9.290000    -10.062000
O         -11.316000     10.157000     -6.717000
C         -10.759000      8.852000     -7.027000
H         -10.742000      8.671000     -8.109000
H         -11.431000      8.090000     -6.613000
H          -9.752000      8.672000     -6.630000
O          -9.480000     11.193000     -7.706000
C         -10.552000     11.265000     -7.178000
C         -11.343000     12.523000     -6.927000
H         -12.342000     12.424000     -7.370000
H         -10.760000     13.291000     -7.450000
C         -11.456000     12.940000     -5.482000
H         -11.855000     12.090000     -4.915000
H         -10.503000     13.255000     -5.038000
C         -12.517000     14.080000     -5.209000
H         -13.446000     13.689000     -5.643000
H         -12.615000     14.249000     -4.130000
C         -12.334000     15.488000     -5.911000
C         -11.081000     16.146000     -5.373000
C          -9.847000     15.914000     -5.935000
H          -9.855000     15.487000     -6.933000
C          -8.657000     16.032000     -5.147000
H          -7.710000     15.657000     -5.522000
C          -8.760000     16.659000     -3.914000
H          -7.852000     16.794000     -3.333000
C          -9.961000     17.082000     -3.354000
H          -9.957000     17.418000     -2.321000
C         -11.148000     16.841000     -4.125000
H         -12.135000     17.040000     -3.719000
C         -14.366000     20.303000     -7.529000
C         -12.611000     19.849000     -9.216000
C         -15.472000     18.912000    -12.570000
C         -17.612000     16.433000     -7.340000
C         -15.227000     15.448000    -12.287000
C         -13.077000     19.769000     -7.882000
C         -17.780000     15.223000     -9.782000
C         -15.506000     20.703000    -10.934000
C         -12.113000     15.856000     -9.659000
C         -16.917000     15.240000     -7.576000
C         -12.708000     15.704000     -7.347000
C         -13.016000     14.792000     -9.620000
C         -15.700000     14.034000     -9.103000
C         -17.381000     15.217000    -11.075000
C         -11.883000     17.937000     -8.263000
C         -16.959000     17.177000    -12.542000
C         -13.463000     16.396000     -6.275000
C         -15.000000     16.072000     -6.248000
C         -15.651000     16.704000    -12.797000
C         -18.220000     19.221000     -9.327000
C         -17.460000     19.300000    -11.359000
C         -16.821000     20.330000    -10.652000
C         -14.612000     21.032000     -9.901000
C         -15.672000     17.299000     -6.064000
C         -11.965000     16.498000     -8.389000
C         -13.342000     20.470000    -10.201000
C         -16.952000     14.615000     -8.775000
C         -11.857000     18.689000     -9.428000
C         -13.892000     14.507000    -10.696000
C         -17.371000     18.672000     -7.130000
C         -14.821000     19.938000    -11.901000
C         -13.495000     14.716000     -8.254000
C         -16.478000     20.628000     -8.271000
C         -15.206000     14.113000    -10.435000
C         -12.146000     16.684000    -10.797000
C         -18.469000     17.211000    -10.658000
C         -18.470000     16.386000     -9.541000
C         -13.046000     16.468000    -11.845000
C         -16.956000     17.454000     -6.586000
C         -15.611000     15.093000     -7.121000
C         -18.270000     18.430000     -8.164000
C         -13.491000     17.874000     -6.396000
C         -12.827000     18.716000    -11.613000
C         -14.826000     14.472000     -8.085000
C         -13.908000     15.321000    -11.842000
C         -16.510000     19.772000     -7.131000
C         -14.733000     17.811000    -12.805000
C         -15.137000     20.913000     -8.541000
C         -16.829000     18.560000    -12.376000
C         -12.028000     18.096000    -10.690000
C         -13.419000     17.708000    -12.356000
C         -12.639000     18.617000     -7.249000
C         -14.777000     18.346000     -6.160000
C         -18.342000     18.578000    -10.530000
C         -13.507000     19.861000    -11.432000
C         -16.080000     14.691000    -11.423000
C         -18.429000     17.023000     -8.307000
C         -17.853000     16.433000    -11.699000
C         -15.223000     19.601000     -6.668000
C         -17.297000     20.332000     -9.412000
$end

--------------------------------------------------------------
 ----------------------------------------------------------------
             Standard Nuclear Orientation (Angstroms)
    I     Atom           X                Y                Z
 ----------------------------------------------------------------
    1      O      13.7244355811    -1.1744218703    -2.3696255210
    2      C      15.1208235973    -0.8824936463    -2.7283572035
    3      H      15.4563451983    -1.5534342090    -3.5290619035
    4      H      15.8282570979    -1.0089140057    -1.9001895061
    5      H      15.1357096054     0.1310823411    -3.1497443467
    6      O      13.0038104323    -0.4971853528    -4.4988683663
    7      C      12.7239560319    -0.9632488457    -3.3546466505
    8      C      11.2584583151    -1.1578682190    -2.9225948694
    9      H      11.2712734162    -2.2352615067    -2.7131086482
   10      H      10.5537436227    -0.9644986066    -3.7412543806
   11      C      10.8394843729    -0.3846883603    -1.6372502689
   12      H      11.3735693822    -0.6845537665    -0.7275404575
   13      H      11.1291882152     0.6336273867    -1.9221760891
   14      C       9.3355977196    -0.5585138326    -1.3686117775
   15      H       8.7215215643    -0.3151549448    -2.2448189033
   16      H       9.1630757332    -1.6182342012    -1.1420132234
   17      C       8.7484186801     0.2265959023    -0.1679709154
   18      C       9.7252126663     0.9002469715     0.7295555442
   19      C      10.2168731788     2.1558856930     0.3237152536
   20      H      10.0418953468     2.4389942890    -0.7099390799
   21      C      11.1283792438     2.8586333725     1.1427313660
   22      H      11.4996751953     3.8252643304     0.8159915495
   23      C      11.5273188666     2.4171540502     2.3877711988
   24      H      12.2600682821     3.0340383916     2.9009972730
   25      C      10.9563725139     1.2279985660     2.8632945914
   26      H      11.3068088020     0.8420771465     3.8157771718
   27      C      10.0613126374     0.4934706270     2.0328094776
   28      H       9.7390316307    -0.4494819049     2.4646676433
   29      C       4.7199439023    -0.5800328308     3.5835165298
   30      C       4.7236856684     1.8520979854     3.2659465504
   31      C       0.8553664400     2.0214848099     0.9316313508
   32      C       4.2474457066    -2.9412727257    -0.8207010640
   33      C       2.3397114314     2.1678009261    -2.1786783670
   34      C       5.4107744938     0.6037104110     3.3911600084
   35      C       2.6729209724    -1.4577691812    -2.5089960901
   36      C       1.4184035734     0.6444382181     2.8947240309
   37      C       5.9660985964     2.8262446529    -0.4271105012
   38      C       4.8476386729    -2.1044439960    -1.7248554094
   39      C       7.3855774199     0.9148880813    -0.3578434406
   40      C       5.8843916163     2.1904307881    -1.6831430242
   41      C       4.7345737995    -0.1866875364    -2.8322128477
   42      C       1.9773442117    -0.2313056963    -2.5310480763
   43      C       6.4241724296     1.9140683670     1.7804720650
   44      C       0.6059205121     0.9087022104    -1.0033160943
   45      C       7.4385679216    -0.4303722729     0.3939408277
   46      C       6.6477988994    -1.5788061882    -0.1957886829
   47      C       1.2228067529     2.1763457516    -1.2979026151
   48      C       1.4793854730    -2.3662774336     1.1948588973
   49      C       0.3627495435    -0.4350216623     1.0265605113
   50      C       0.9258104850    -0.5457753014     2.2831638726
   51      C       2.6364110631     0.5564944795     3.5802637115
   52      C       6.0176732299    -2.3101372814     0.7912829826
   53      C       6.7980622285     2.0919697811     0.4352205996
   54      C       3.2786073834     1.7657882108     3.4044867003
   55      C       4.0733438806    -1.4044193016    -2.6102999317
   56      C       5.3262099259     2.6250178664     2.2909386650
   57      C       4.5667178759     2.2072762270    -2.3475481302
   58      C       3.7938363314    -3.0992872812     1.3780603908
   59      C       1.3139153996     1.8436759649     2.2233038582
   60      C       6.5911731149     0.9790995152    -1.5861612708
   61      C       2.8095168078    -1.7474828336     3.0534459615
   62      C       4.0574720222     0.9917056333    -2.9238846572
   63      C       4.8892621197     3.5138837298     0.0502454482
   64      C       0.9858985109    -1.5360589121    -0.9877670040
   65      C       2.1092897641    -2.2266108525    -1.4703352477
   66      C       3.6488109852     3.5638780137    -0.6203904847
   67      C       4.8474410930    -3.0079472235     0.4420566513
   68      C       6.0034077717    -1.4454405443    -1.4541521756
   69      C       2.5872182378    -3.1289859503     0.7042059814
   70      C       6.9520670463    -0.4874378502     1.8511273011
   71      C       3.1570561961     3.3815285123     1.5534362993
   72      C       5.9577825083    -0.2164396920    -2.1496205360
   73      C       3.4707891552     2.9086311688    -1.8475126466
   74      C       3.9075610725    -2.4334004879     2.5755738403
   75      C       1.3668527490     2.8374972574    -0.0521584851
   76      C       3.3263293934    -0.5524392123     3.6629847170
   77      C       0.3571799297     0.8114729839     0.3264540363
   78      C       4.5762163525     3.4442933382     1.4532613159
   79      C       2.5544903972     3.5238614096     0.2843382714
   80      C       6.4985305216     0.6487565216     2.4737186359
   81      C       6.2218224339    -1.7057627644     2.0426820179
   82      C       0.6636811071    -1.6251601733     0.3918136968
   83      C       2.4877817396     2.5391612827     2.5377970829
   84      C       2.6957232672     0.9565313229    -2.7887140390
   85      C       2.8286505618    -3.1031661973    -0.6660891596
   86      C       0.9505288445    -0.2559637426    -1.6222993858
   87      C       5.0905194135    -1.7595295148     2.9513137435
   88      C       1.5902238242    -1.6974662417     2.3707132460
   89      O       0.0326179994    -5.1042643211     0.9604987444
   90      C       1.1688917520    -5.6240117056     1.7008490772
   91      H       1.4057658489    -4.9920218762     2.5658655614
   92      H       2.0501362942    -5.5714153473     1.0494922779
   93      H       1.0613133765    -6.6594737089     2.0476967857
   94      O      -1.3745588746    -5.5839839656     2.7527139401
   95      C      -1.2030797489    -5.1134123709     1.6653734765
   96      C      -2.2306852937    -4.3950397280     0.8291835519
   97      H      -1.8530929063    -3.4018217480     0.5553349931
   98      H      -3.0883142130    -4.3115169467     1.5079608216
   99      C      -2.6931319630    -5.1314138416    -0.4031229209
  100      H      -1.8060147729    -5.3975560219    -0.9908145331
  101      H      -3.2674851388    -6.0406539927    -0.1841006002
  102      C      -3.5393564971    -4.2560400001    -1.4118224180
  103      H      -2.8984027033    -3.3886718424    -1.6146245706
  104      H      -3.7438059914    -4.8293347624    -2.3239296046
  105      C      -4.9015258216    -3.6140863694    -0.9207549404
  106      C      -5.8891640570    -4.7231867680    -0.6259939833
  107      C      -5.9454785397    -5.3289898578     0.6078031213
  108      H      -5.4700130647    -4.7897492895     1.4211598644
  109      C      -6.4113434769    -6.6773691390     0.7335456131
  110      H      -6.2679654874    -7.2243050357     1.6600243646
  111      C      -7.0659437523    -7.2371391478    -0.3537367867
  112      H      -7.4635517930    -8.2425532863    -0.2474341241
  113      C      -7.2022317781    -6.6094666490    -1.5875855652
  114      H      -7.5910179602    -7.1893724417    -2.4197848059
  115      C      -6.6194870053    -5.3029946749    -1.7101845488
  116      H      -6.5847352144    -4.7876657642    -2.6650847670
  117      C      -8.9300136253     0.0402254671    -1.5110633487
  118      C      -8.8357998366    -0.2868268906     0.9417453510
  119      C      -6.9955807902     3.7281513183     1.8396038270
  120      C      -4.3792742874     1.3995868015    -3.2408162909
  121      C      -3.7328409940     2.5541111806     2.1795579079
  122      C      -8.7217926272    -0.8097321893    -0.3684776853
  123      C      -3.0186129824     2.7894646750    -1.3244321149
  124      C      -8.8157875282     3.1352506417     0.3494195368
  125      C      -5.0824710425    -1.3103850969     2.0611887670
  126      C      -3.3908275570     0.7576137552    -2.4839717435
  127      C      -4.9262373927    -2.3762747136    -0.0746818685
  128      C      -3.8278209471    -0.9206464113     1.5889781200
  129      C      -2.4435749516     0.5481753558    -0.4040433652
  130      C      -3.0350654927     3.3154334063    -0.0777676819
  131      C      -7.2350935993    -1.8770282286     0.8875582079
  132      C      -4.9438030443     4.3969712699     1.0878951376
  133      C      -5.4673533237    -2.3387147360    -1.4544846796
  134      C      -4.7643260561    -1.3008777035    -2.4014381922
  135      C      -4.8053189718     3.4851391192     2.1598103817
  136      C      -6.7922986350     3.7638944401    -2.4173237969
  137      C      -6.9373982865     4.5134097765    -0.3850743408
  138      C      -8.1377865901     3.8362797172    -0.6489546232
  139      C      -9.4248293954     1.8987239232     0.0762242252
  140      C      -5.7882497387    -0.6348226327    -3.1077808391
  141      C      -5.8178436302    -2.0748418536     1.1010840726
  142      C      -9.1880030137     1.0225155650     1.1693464407
  143      C      -2.7050491105     1.3978229072    -1.5096560020
  144      C      -7.8957221435    -0.9797039115     1.7132603313
  145      C      -3.2631839125     0.3402772622     1.9014417321
  146      C      -6.6142185907     1.6150509412    -3.5126639792
  147      C      -8.1928327468     3.0653789163     1.6129796985
  148      C      -3.7163259690    -1.4533636294     0.2454922677
  149      C      -8.6592848641     2.1420270488    -2.3021822076
  150      C      -2.5638821136     1.0489697333     0.9223171356
  151      C      -5.8030486225    -0.3689251332     2.8202263735
  152      C      -4.7073403088     4.3199323005    -1.3139504802
  153      C      -3.9796936472     3.4175332247    -2.0784903705
  154      C      -5.3005947546     0.9080967348     3.0880234220
  155      C      -5.5782049362     0.6779874517    -3.5291783511
  156      C      -3.6100825386    -0.5269638654    -1.9981141618
  157      C      -6.0877918165     2.8763373120    -3.2519868948
  158      C      -6.8789869844    -1.8939468417    -1.5513398710
  159      C      -7.5399654227     1.1278969926     2.7843857136
  160      C      -3.1517740083    -0.6384932232    -0.6909506321
  161      C      -3.9740960756     1.2710161890     2.6789357490
  162      C      -7.8952318705     1.2405524546    -3.1002590078
  163      C      -6.1071953206     3.0747825181     2.6125381503
  164      C      -9.2597387579     1.3935641812    -1.2864733628
  165      C      -6.3217185608     4.5209015907     0.8802052125
  166      C      -7.2022583345    -0.1918855323     2.6470612453
  167      C      -6.3705802505     1.7984673055     3.1028990956
  168      C      -7.7608074224    -1.8047241679    -0.4468064720
  169      C      -7.0209489348    -0.9864757099    -2.5947089091
  170      C      -6.0667138816     4.4664391924    -1.4923915633
  171      C      -8.4825369217     1.7824743509     2.0849048695
  172      C      -2.8379325680     2.4553497765     1.0675601138
  173      C      -4.6807348578     2.7535046203    -3.0773963889
  174      C      -4.0496897096     4.3447722546    -0.0351621216
  175      C      -8.0869734696    -0.0407622924    -2.6296777947
  176      C      -8.0945740695     3.3996907598    -1.9026303230
 ----------------------------------------------------------------
 Molecular Point Group                 C1    NOp =  1
 Largest Abelian Subgroup              C1    NOp =  1
 Nuclear Repulsion Energy = 34431.6019191061 hartrees
 There are      462 alpha and      462 beta electrons
 Requested basis set is 6-31G(d,p)
 There are 676 shells and 2360 basis functions

 Total QAlloc Memory Limit  20000 MB
 Mega-Array Size      4888 MB
 MEM_STATIC part      5000 MB
 A cutoff of  1.0D-08 yielded  37920 shell pairs
 There are    532756 function pairs
 
 -------------------------------------------------------
 OpenMP Integral Computing Module                       
 Release: version 1.0, May 2013, Q-Chem Inc. Pittsburgh 
 -------------------------------------------------------
 Integral Job Info:
 Integral job number is                      11
 Integral operator is                         1
 short-range coefficients                     0
 long-range coefficients              100000000
 Omega coefficients                           0
 if combine SR and LR in K                    0
 Integral screening is                        0
 Integral computing path is                   2
 max size of driver memory is            800000
 size of driver memory is                593474
 size of scratch memory is              2260544
 max col of scratch BK array               1296
 max len of scratch array in speh3          155
 max len of scratch index in speh4           18
 max int batch size is                      520
 min int batch size is                       52
 fixed nKL is                                52
 max L of basis functions is                  2
 order of int derivative is                   0
 number of shells is                        676
 number of basis is                        2360
 number of cartesian basis is              2360
 number of contracted shell pairs         37920
 number of primitive shell pairs         114631
 maxK2 (contraction) of shell pair           36
 max number of K2 of shell pair               1
 max number of CS2 of shell pair           7253
 max number of PS2 of shell pair          34656
 mem total for path MDJ                 1514856
 -------------------------------------------------------
 Smallest overlap matrix eigenvalue = 2.35E-04

 Scale SEOQF with 1.000000e-02/1.000000e-02/1.000000e-01

 Standard Electronic Orientation quadrupole field applied
 Nucleus-field energy     =    -0.0000002194 hartrees
 Guess from superposition of atomic densities
 Warning:  Energy on first SCF cycle will be non-variational
 A restricted hybrid HF-DFT SCF calculation will be
 performed using Pulay DIIS extrapolation
 Exchange:     0.2000 Hartree-Fock + 0.0800 Slater + 0.7200 B88
 Correlation:  0.1900 VWN1RPA + 0.8100 LYP
 Using SG-1 standard quadrature grid
 SCF converges when DIIS error is below 1.0E-05
 using 16 threads for integral computing 
 -------------------------------------------------------
 OpenMP BLAS3 based DFT computing Module                
 Release: version 1.0, May 2013, Q-Chem Inc. Pittsburgh 
 -------------------------------------------------------
 ---------------------------------------
  Cycle       Energy         DIIS Error
 ---------------------------------------
    1   -5858.4963643068      1.83E-02
    2   -5803.0370637514      1.31E-03
    3   -5802.0777422455      1.87E-03
    4   -5803.8836308052      6.72E-04
    5   -5804.1439816903      2.92E-04
    6   -5804.1972312655      1.33E-04
    7   -5804.2084537937      5.10E-05
    8   -5804.2096357149      3.14E-05
    9   -5804.2103364420      1.00E-05
   10   -5804.2102840552      2.22E-06 Convergence criterion met
 ---------------------------------------
 SCF time:  CPU 7814.12 s  wall 907.39 s
 SCF   energy in the final basis set = -5804.2102840552
 Total energy in the final basis set = -5804.2102840552
 
 --------------------------------------------------------------
 
                    Orbital Energies (a.u.)
 --------------------------------------------------------------
 
 Alpha MOs
 -- Occupied --
-19.194 -19.187 -19.148 -19.137 -10.327 -10.318 -10.247 -10.244
-10.243 -10.242 -10.242 -10.242 -10.240 -10.236 -10.232 -10.231
-10.231 -10.230 -10.230 -10.229 -10.229 -10.228 -10.228 -10.227
-10.224 -10.224 -10.223 -10.223 -10.223 -10.222 -10.222 -10.222
-10.221 -10.221 -10.221 -10.221 -10.220 -10.220 -10.219 -10.219
-10.219 -10.219 -10.219 -10.219 -10.218 -10.218 -10.218 -10.218
-10.218 -10.218 -10.217 -10.217 -10.217 -10.217 -10.217 -10.216
-10.216 -10.216 -10.216 -10.216 -10.216 -10.216 -10.216 -10.215
-10.215 -10.215 -10.215 -10.215 -10.215 -10.215 -10.215 -10.214
-10.214 -10.214 -10.214 -10.214 -10.214 -10.214 -10.214 -10.214
-10.214 -10.214 -10.213 -10.213 -10.213 -10.213 -10.213 -10.213
-10.213 -10.212 -10.212 -10.212 -10.212 -10.212 -10.211 -10.211
-10.211 -10.211 -10.211 -10.211 -10.211 -10.211 -10.211 -10.211
-10.211 -10.211 -10.210 -10.210 -10.210 -10.210 -10.210 -10.210
-10.209 -10.209 -10.209 -10.209 -10.209 -10.209 -10.209 -10.209
-10.208 -10.208 -10.208 -10.207 -10.207 -10.206 -10.206 -10.206
-10.205 -10.205 -10.205 -10.205 -10.204 -10.204 -10.204 -10.203
-10.203 -10.202 -10.202 -10.201 -10.201 -10.201 -10.200 -10.200
-10.199 -10.198 -10.198 -10.194  -1.085  -1.066  -1.015  -0.988
 -0.987  -0.984  -0.969  -0.967  -0.964  -0.964  -0.963  -0.959
 -0.937  -0.936  -0.929  -0.927  -0.926  -0.926  -0.925  -0.924
 -0.923  -0.921  -0.900  -0.900  -0.891  -0.889  -0.885  -0.884
 -0.875  -0.874  -0.853  -0.852  -0.846  -0.845  -0.845  -0.839
 -0.838  -0.835  -0.823  -0.817  -0.809  -0.807  -0.802  -0.800
 -0.799  -0.797  -0.796  -0.794  -0.794  -0.789  -0.785  -0.784
 -0.775  -0.772  -0.772  -0.769  -0.767  -0.766  -0.765  -0.762
 -0.747  -0.745  -0.742  -0.738  -0.731  -0.730  -0.722  -0.718
 -0.717  -0.716  -0.714  -0.713  -0.712  -0.712  -0.710  -0.709
 -0.708  -0.707  -0.705  -0.702  -0.702  -0.696  -0.675  -0.672
 -0.663  -0.661  -0.657  -0.655  -0.650  -0.647  -0.634  -0.631
 -0.628  -0.627  -0.625  -0.625  -0.624  -0.623  -0.621  -0.620
 -0.618  -0.616  -0.615  -0.615  -0.614  -0.612  -0.611  -0.609
 -0.607  -0.604  -0.603  -0.603  -0.566  -0.564  -0.563  -0.562
 -0.562  -0.559  -0.559  -0.559  -0.558  -0.555  -0.553  -0.553
 -0.537  -0.537  -0.536  -0.532  -0.531  -0.529  -0.527  -0.524
 -0.523  -0.522  -0.520  -0.519  -0.518  -0.518  -0.515  -0.514
 -0.507  -0.503  -0.502  -0.496  -0.494  -0.492  -0.488  -0.487
 -0.485  -0.485  -0.484  -0.481  -0.478  -0.478  -0.475  -0.474
 -0.473  -0.471  -0.470  -0.469  -0.468  -0.468  -0.466  -0.466
 -0.466  -0.465  -0.464  -0.464  -0.462  -0.460  -0.460  -0.459
 -0.458  -0.456  -0.453  -0.452  -0.450  -0.447  -0.447  -0.445
 -0.444  -0.442  -0.442  -0.440  -0.438  -0.437  -0.434  -0.433
 -0.432  -0.431  -0.429  -0.428  -0.427  -0.427  -0.426  -0.426
 -0.425  -0.424  -0.422  -0.421  -0.420  -0.420  -0.419  -0.418
 -0.418  -0.418  -0.417  -0.416  -0.415  -0.414  -0.413  -0.413
 -0.412  -0.411  -0.409  -0.407  -0.406  -0.403  -0.401  -0.399
 -0.396  -0.392  -0.392  -0.390  -0.390  -0.388  -0.386  -0.386
 -0.383  -0.378  -0.375  -0.374  -0.372  -0.367  -0.366  -0.365
 -0.364  -0.363  -0.363  -0.363  -0.362  -0.362  -0.359  -0.359
 -0.358  -0.358  -0.356  -0.356  -0.355  -0.353  -0.353  -0.352
 -0.352  -0.351  -0.350  -0.348  -0.348  -0.347  -0.345  -0.345
 -0.344  -0.342  -0.341  -0.338  -0.337  -0.336  -0.336  -0.336
 -0.335  -0.333  -0.331  -0.330  -0.329  -0.327  -0.326  -0.323
 -0.314  -0.309  -0.299  -0.294  -0.289  -0.285  -0.277  -0.273
 -0.272  -0.270  -0.270  -0.267  -0.267  -0.266  -0.265  -0.264
 -0.263  -0.262  -0.261  -0.259  -0.257  -0.256  -0.254  -0.253
 -0.252  -0.247  -0.246  -0.241  -0.223  -0.220  -0.215  -0.213
 -0.210  -0.209  -0.208  -0.205  -0.199  -0.197
 -- Virtual --
 -0.127  -0.122  -0.121  -0.118  -0.108  -0.105  -0.079  -0.077
 -0.076  -0.072  -0.064  -0.061  -0.056  -0.053  -0.027  -0.025
 -0.023  -0.021  -0.020  -0.019  -0.017  -0.016  -0.015  -0.012
 -0.012  -0.010  -0.009  -0.008  -0.008  -0.005  -0.002   0.002
  0.003   0.007   0.030   0.037   0.041   0.043   0.044   0.045
  0.051   0.052   0.054   0.058   0.062   0.064   0.065   0.067
  0.067   0.069   0.072   0.077   0.083   0.085   0.086   0.088
  0.093   0.096   0.098   0.099   0.103   0.103   0.105   0.106
  0.109   0.110   0.111   0.115   0.115   0.117   0.119   0.120
  0.121   0.124   0.127   0.129   0.129   0.130   0.131   0.135
  0.136   0.137   0.140   0.145   0.147   0.150   0.153   0.156
  0.156   0.159   0.160   0.163   0.164   0.165   0.166   0.166
  0.168   0.171   0.172   0.173   0.175   0.175   0.177   0.178
  0.181   0.181   0.183   0.184   0.185   0.186   0.188   0.191
  0.193   0.195   0.196   0.200   0.202   0.203   0.205   0.207
  0.207   0.210   0.211   0.213   0.215   0.217   0.217   0.219
  0.219   0.220   0.222   0.223   0.224   0.225   0.226   0.228
  0.229   0.230   0.232   0.232   0.235   0.236   0.237   0.239
  0.240   0.243   0.246   0.247   0.248   0.251   0.255   0.256
  0.258   0.262   0.268   0.268   0.272   0.275   0.276   0.280
  0.284   0.284   0.285   0.289   0.291   0.293   0.296   0.299
  0.302   0.306   0.306   0.309   0.311   0.312   0.314   0.316
  0.319   0.323   0.323   0.325   0.326   0.329   0.330   0.332
  0.335   0.336   0.338   0.340   0.341   0.344   0.345   0.348
  0.349   0.352   0.353   0.358   0.365   0.374   0.383   0.384
  0.393   0.396   0.400   0.402   0.402   0.405   0.408   0.409
  0.411   0.412   0.414   0.415   0.417   0.419   0.424   0.426
  0.428   0.429   0.430   0.435   0.436   0.440   0.441   0.445
  0.446   0.450   0.453   0.455   0.456   0.459   0.462   0.463
  0.464   0.465   0.466   0.468   0.469   0.472   0.473   0.475
  0.476   0.477   0.479   0.480   0.480   0.481   0.483   0.485
  0.488   0.488   0.489   0.491   0.492   0.493   0.494   0.494
  0.496   0.496   0.499   0.500   0.501   0.502   0.503   0.505
  0.505   0.507   0.507   0.508   0.510   0.510   0.512   0.512
  0.513   0.513   0.514   0.515   0.516   0.517   0.518   0.518
  0.519   0.521   0.521   0.522   0.523   0.524   0.525   0.525
  0.526   0.527   0.527   0.529   0.529   0.530   0.532   0.532
  0.534   0.535   0.536   0.536   0.537   0.538   0.538   0.539
  0.539   0.540   0.541   0.542   0.542   0.543   0.544   0.546
  0.546   0.547   0.548   0.549   0.550   0.550   0.551   0.551
  0.552   0.552   0.552   0.553   0.554   0.556   0.556   0.557
  0.557   0.558   0.559   0.561   0.561   0.562   0.563   0.564
  0.565   0.565   0.566   0.567   0.569   0.569   0.570   0.571
  0.572   0.573   0.574   0.574   0.575   0.577   0.578   0.579
  0.579   0.580   0.581   0.582   0.583   0.583   0.584   0.584
  0.586   0.588   0.588   0.589   0.589   0.591   0.592   0.593
  0.593   0.595   0.595   0.596   0.597   0.597   0.598   0.599
  0.600   0.600   0.602   0.602   0.605   0.605   0.606   0.607
  0.608   0.609   0.610   0.610   0.612   0.613   0.616   0.617
  0.618   0.619   0.619   0.621   0.622   0.623   0.623   0.625
  0.626   0.627   0.629   0.630   0.630   0.630   0.632   0.634
  0.635   0.636   0.637   0.637   0.638   0.639   0.640   0.640
  0.643   0.644   0.645   0.645   0.647   0.648   0.650   0.650
  0.651   0.651   0.653   0.654   0.655   0.656   0.657   0.657
  0.660   0.661   0.662   0.662   0.663   0.664   0.665   0.666
  0.667   0.667   0.668   0.669   0.670   0.671   0.671   0.671
  0.672   0.674   0.675   0.675   0.675   0.678   0.679   0.680
  0.682   0.684   0.685   0.686   0.687   0.688   0.689   0.690
  0.691   0.692   0.694   0.695   0.696   0.697   0.697   0.699
  0.700   0.701   0.701   0.703   0.704   0.705   0.705   0.707
  0.708   0.710   0.711   0.712   0.713   0.715   0.717   0.719
  0.719   0.721   0.721   0.723   0.723   0.724   0.725   0.727
  0.727   0.728   0.730   0.731   0.732   0.733   0.735   0.737
  0.739   0.740   0.741   0.742   0.744   0.745   0.746   0.748
  0.748   0.749   0.750   0.753   0.753   0.754   0.757   0.759
  0.760   0.761   0.762   0.764   0.764   0.766   0.767   0.767
  0.770   0.771   0.773   0.774   0.774   0.776   0.777   0.778
  0.780   0.781   0.781   0.782   0.783   0.784   0.785   0.786
  0.787   0.789   0.791   0.792   0.794   0.794   0.795   0.796
  0.798   0.799   0.799   0.800   0.803   0.804   0.805   0.806
  0.808   0.809   0.810   0.811   0.811   0.812   0.812   0.814
  0.815   0.815   0.816   0.817   0.817   0.818   0.819   0.820
  0.821   0.822   0.824   0.824   0.825   0.826   0.827   0.827
  0.828   0.831   0.831   0.832   0.833   0.834   0.835   0.836
  0.838   0.841   0.842   0.843   0.845   0.848   0.848   0.853
  0.857   0.858   0.859   0.861   0.862   0.863   0.867   0.868
  0.872   0.874   0.876   0.881   0.885   0.887   0.890   0.892
  0.894   0.895   0.898   0.901   0.902   0.904   0.908   0.911
  0.914   0.915   0.917   0.919   0.921   0.923   0.928   0.928
  0.932   0.932   0.934   0.935   0.936   0.938   0.940   0.942
  0.944   0.944   0.945   0.946   0.950   0.952   0.954   0.956
  0.957   0.958   0.961   0.963   0.963   0.971   0.973   0.975
  0.978   0.980   0.981   0.983   0.988   0.990   0.993   0.994
  0.996   0.998   0.999   1.000   1.002   1.006   1.006   1.008
  1.009   1.011   1.014   1.015   1.016   1.019   1.021   1.022
  1.024   1.026   1.028   1.030   1.032   1.034   1.034   1.037
  1.037   1.039   1.042   1.043   1.044   1.045   1.047   1.047
  1.049   1.051   1.052   1.055   1.057   1.059   1.060   1.061
  1.062   1.063   1.064   1.066   1.067   1.068   1.073   1.073
  1.074   1.076   1.078   1.079   1.081   1.082   1.084   1.086
  1.088   1.088   1.092   1.094   1.094   1.098   1.100   1.101
  1.102   1.105   1.106   1.109   1.111   1.115   1.116   1.120
  1.121   1.122   1.124   1.126   1.127   1.130   1.131   1.132
  1.133   1.138   1.140   1.141   1.146   1.147   1.149   1.150
  1.151   1.152   1.154   1.156   1.156   1.158   1.160   1.161
  1.164   1.165   1.167   1.167   1.171   1.173   1.173   1.175
  1.178   1.178   1.179   1.181   1.181   1.184   1.185   1.185
  1.187   1.189   1.193   1.196   1.199   1.200   1.203   1.205
  1.206   1.209   1.210   1.213   1.215   1.218   1.219   1.220
  1.224   1.224   1.227   1.231   1.233   1.238   1.239   1.241
  1.246   1.247   1.251   1.252   1.253   1.256   1.258   1.261
  1.263   1.263   1.266   1.268   1.269   1.270   1.273   1.275
  1.276   1.278   1.281   1.282   1.285   1.287   1.289   1.290
  1.291   1.298   1.298   1.303   1.305   1.306   1.310   1.312
  1.314   1.317   1.319   1.321   1.326   1.329   1.330   1.333
  1.336   1.338   1.339   1.341   1.343   1.346   1.347   1.348
  1.353   1.355   1.357   1.358   1.359   1.364   1.364   1.368
  1.370   1.371   1.374   1.378   1.380   1.381   1.383   1.385
  1.387   1.389   1.392   1.395   1.396   1.398   1.400   1.401
  1.403   1.408   1.413   1.417   1.420   1.421   1.428   1.430
  1.431   1.436   1.437   1.439   1.442   1.446   1.446   1.450
  1.451   1.454   1.454   1.457   1.460   1.460   1.463   1.465
  1.467   1.469   1.470   1.471   1.474   1.475   1.478   1.479
  1.479   1.481   1.483   1.485   1.487   1.488   1.491   1.493
  1.494   1.495   1.498   1.503   1.504   1.506   1.510   1.514
  1.515   1.518   1.520   1.522   1.528   1.530   1.534   1.536
  1.539   1.541   1.541   1.544   1.545   1.546   1.548   1.551
  1.557   1.558   1.560   1.561   1.562   1.564   1.566   1.572
  1.574   1.576   1.577   1.578   1.584   1.586   1.588   1.591
  1.594   1.596   1.599   1.602   1.603   1.610   1.612   1.613
  1.615   1.619   1.620   1.623   1.625   1.633   1.636   1.639
  1.641   1.644   1.648   1.651   1.653   1.659   1.660   1.664
  1.671   1.675   1.676   1.677   1.680   1.686   1.687   1.689
  1.696   1.698   1.699   1.705   1.705   1.712   1.714   1.716
  1.718   1.719   1.722   1.723   1.725   1.727   1.727   1.729
  1.731   1.733   1.733   1.736   1.739   1.741   1.742   1.744
  1.746   1.747   1.749   1.750   1.751   1.753   1.755   1.756
  1.757   1.761   1.762   1.763   1.764   1.764   1.766   1.767
  1.768   1.770   1.771   1.773   1.774   1.777   1.777   1.778
  1.780   1.782   1.783   1.784   1.784   1.787   1.788   1.790
  1.791   1.791   1.792   1.793   1.793   1.797   1.798   1.798
  1.799   1.802   1.803   1.804   1.805   1.808   1.810   1.811
  1.812   1.814   1.815   1.815   1.818   1.818   1.821   1.822
  1.824   1.827   1.829   1.830   1.831   1.834   1.836   1.837
  1.840   1.841   1.845   1.847   1.848   1.849   1.852   1.854
  1.855   1.858   1.859   1.861   1.865   1.866   1.867   1.869
  1.871   1.874   1.875   1.878   1.879   1.880   1.880   1.882
  1.885   1.888   1.889   1.894   1.896   1.897   1.898   1.900
  1.901   1.907   1.907   1.908   1.913   1.915   1.918   1.918
  1.922   1.924   1.926   1.928   1.929   1.933   1.936   1.937
  1.937   1.939   1.940   1.943   1.944   1.946   1.947   1.948
  1.949   1.952   1.954   1.956   1.960   1.962   1.964   1.966
  1.966   1.969   1.973   1.975   1.976   1.977   1.979   1.982
  1.984   1.985   1.991   1.992   1.992   1.995   1.997   1.998
  1.999   2.000   2.003   2.003   2.005   2.006   2.006   2.007
  2.008   2.010   2.011   2.012   2.012   2.014   2.015   2.016
  2.017   2.018   2.019   2.021   2.023   2.024   2.024   2.026
  2.027   2.028   2.030   2.031   2.034   2.036   2.038   2.038
  2.039   2.039   2.042   2.042   2.044   2.045   2.046   2.047
  2.049   2.051   2.052   2.053   2.054   2.055   2.055   2.057
  2.058   2.059   2.060   2.061   2.063   2.065   2.066   2.068
  2.069   2.069   2.070   2.073   2.074   2.074   2.076   2.077
  2.079   2.079   2.081   2.082   2.085   2.085   2.086   2.088
  2.092   2.093   2.093   2.096   2.099   2.101   2.102   2.105
  2.107   2.111   2.112   2.115   2.116   2.120   2.122   2.124
  2.128   2.130   2.132   2.136   2.139   2.140   2.142   2.143
  2.149   2.151   2.155   2.157   2.161   2.163   2.168   2.169
  2.173   2.178   2.179   2.185   2.189   2.193   2.194   2.196
  2.197   2.199   2.205   2.208   2.216   2.218   2.223   2.223
  2.228   2.232   2.234   2.237   2.239   2.239   2.240   2.246
  2.246   2.252   2.253   2.256   2.256   2.257   2.259   2.261
  2.262   2.264   2.269   2.270   2.270   2.277   2.278   2.280
  2.282   2.284   2.288   2.291   2.291   2.295   2.296   2.296
  2.298   2.298   2.303   2.306   2.308   2.310   2.312   2.315
  2.317   2.318   2.319   2.325   2.327   2.330   2.332   2.332
  2.335   2.343   2.345   2.348   2.349   2.352   2.353   2.355
  2.356   2.359   2.362   2.363   2.366   2.368   2.370   2.372
  2.372   2.373   2.377   2.377   2.379   2.381   2.382   2.384
  2.386   2.388   2.389   2.392   2.393   2.394   2.395   2.397
  2.399   2.400   2.401   2.403   2.406   2.408   2.409   2.410
  2.413   2.416   2.417   2.419   2.420   2.422   2.424   2.424
  2.426   2.428   2.430   2.433   2.435   2.440   2.441   2.444
  2.445   2.446   2.448   2.452   2.453   2.459   2.461   2.463
  2.463   2.468   2.469   2.469   2.471   2.474   2.477   2.479
  2.480   2.483   2.484   2.486   2.487   2.488   2.490   2.493
  2.493   2.496   2.498   2.498   2.502   2.503   2.504   2.505
  2.508   2.510   2.511   2.513   2.518   2.520   2.522   2.523
  2.526   2.529   2.530   2.530   2.533   2.536   2.540   2.540
  2.541   2.543   2.547   2.548   2.554   2.556   2.558   2.562
  2.565   2.565   2.572   2.575   2.576   2.582   2.584   2.587
  2.589   2.590   2.592   2.592   2.594   2.598   2.602   2.604
  2.605   2.607   2.608   2.609   2.612   2.615   2.616   2.618
  2.620   2.623   2.624   2.627   2.629   2.630   2.632   2.633
  2.634   2.635   2.639   2.641   2.642   2.643   2.644   2.645
  2.645   2.648   2.648   2.650   2.654   2.655   2.656   2.658
  2.660   2.661   2.664   2.666   2.668   2.668   2.672   2.673
  2.674   2.675   2.678   2.679   2.683   2.684   2.685   2.687
  2.689   2.690   2.693   2.694   2.697   2.699   2.704   2.705
  2.706   2.711   2.711   2.714   2.715   2.719   2.721   2.723
  2.725   2.729   2.733   2.734   2.735   2.738   2.741   2.744
  2.744   2.748   2.750   2.754   2.755   2.756   2.760   2.761
  2.762   2.763   2.768   2.769   2.773   2.775   2.778   2.779
  2.781   2.783   2.786   2.789   2.790   2.793   2.794   2.798
  2.802   2.802   2.807   2.810   2.812   2.813   2.815   2.817
  2.822   2.825   2.827   2.834   2.836   2.838   2.840   2.843
  2.847   2.850   2.852   2.853   2.854   2.857   2.859   2.860
  2.861   2.864   2.866   2.869   2.870   2.871   2.875   2.876
  2.878   2.879   2.882   2.883   2.887   2.888   2.890   2.892
  2.895   2.898   2.900   2.901   2.902   2.904   2.906   2.908
  2.909   2.910   2.914   2.915   2.917   2.919   2.921   2.922
  2.925   2.928   2.929   2.930   2.932   2.933   2.937   2.940
  2.942   2.942   2.946   2.949   2.952   2.955   2.958   2.960
  2.963   2.964   2.967   2.970   2.978   2.979   2.980   2.982
  2.985   2.988   2.991   2.994   2.998   3.002   3.003   3.005
  3.008   3.010   3.012   3.015   3.016   3.016   3.020   3.026
  3.028   3.029   3.033   3.035   3.037   3.040   3.041   3.047
  3.049   3.051   3.055   3.057   3.057   3.061   3.065   3.067
  3.072   3.080   3.085   3.087   3.090   3.091   3.098   3.106
  3.110   3.117   3.120   3.126   3.131   3.139   3.147   3.149
  3.150   3.160   3.163   3.165   3.169   3.175   3.185   3.188
  3.189   3.194   3.198   3.219   3.223   3.226   3.230   3.234
  3.246   3.247   3.254   3.261   3.261   3.265   3.273   3.279
  3.284   3.294   3.302   3.313   3.323   3.325   3.330   3.335
  3.341   3.347   3.350   3.354   3.362   3.369   3.378   3.390
  3.392   3.402   3.404   3.415   3.425   3.428   3.433   3.441
  3.454   3.454   3.462   3.480   3.482   3.493   3.496   3.499
  3.503   3.509   3.513   3.516   3.518   3.525   3.530   3.545
  3.548   3.552   3.562   3.574   3.586   3.601   3.617   3.623
  3.630   3.646   3.694   3.706   3.845   3.847   3.946   4.044
  4.058   4.063   4.078   4.079   4.082   4.084   4.086   4.089
  4.094   4.096   4.100   4.107   4.107   4.112   4.114   4.118
  4.121   4.127   4.131   4.133   4.135   4.137   4.141   4.146
  4.149   4.151   4.157   4.159   4.162   4.166   4.168   4.177
  4.179   4.182   4.187   4.195   4.202   4.207   4.219   4.232
  4.238   4.243   4.246   4.249   4.251   4.253   4.256   4.262
  4.267   4.270   4.277   4.278   4.283   4.290   4.295   4.299
  4.302   4.314   4.323   4.341   4.361   4.378   4.386   4.388
  4.389   4.393   4.400   4.405   4.409   4.414   4.415   4.417
  4.421   4.423   4.428   4.432   4.435   4.442   4.448   4.464
  4.470   4.491   4.514   4.526   4.529   4.532   4.542   4.546
  4.557   4.561   4.583   4.618   4.624   4.627   4.631   4.638
  4.650   4.653   4.665   4.684   4.685   4.692   4.699   4.700
  4.704   4.710   4.714   4.715   4.734   4.771   4.786   4.793
  4.821   4.849   4.854   4.860   4.865   4.869   4.884   4.895
  4.912   4.915   4.957   4.965   4.970   4.972   4.978   4.984
  4.988   4.997   5.005   5.014   5.172   5.174   5.179   5.193
  5.195   5.219   5.222   5.231   5.312   5.336   5.354   5.364
  5.366   5.376
 --------------------------------------------------------------
 
          Ground-State Mulliken Net Atomic Charges

     Atom                 Charge (a.u.)
  ----------------------------------------
      1 O                    -0.490183
      2 C                    -0.079356
      3 H                     0.129118
      4 H                     0.126913
      5 H                     0.135245
      6 O                    -0.482124
      7 C                     0.580468
      8 C                    -0.240074
      9 H                     0.127087
     10 H                     0.141155
     11 C                    -0.190648
     12 H                     0.131027
     13 H                     0.115365
     14 C                    -0.183527
     15 H                     0.111375
     16 H                     0.118767
     17 C                     0.005496
     18 C                     0.082669
     19 C                    -0.099776
     20 H                     0.091403
     21 C                    -0.089296
     22 H                     0.086762
     23 C                    -0.069037
     24 H                     0.094095
     25 C                    -0.099048
     26 H                     0.093730
     27 C                    -0.126008
     28 H                     0.090986
     29 C                     0.026624
     30 C                    -0.008388
     31 C                     0.019506
     32 C                    -0.012802
     33 C                    -0.016820
     34 C                    -0.014399
     35 C                    -0.028752
     36 C                    -0.002686
     37 C                     0.022534
     38 C                     0.030477
     39 C                    -0.065333
     40 C                    -0.025147
     41 C                    -0.011056
     42 C                     0.004734
     43 C                     0.008886
     44 C                     0.010711
     45 C                    -0.095257
     46 C                     0.013755
     47 C                    -0.036405
     48 C                     0.045748
     49 C                     0.037753
     50 C                    -0.016182
     51 C                     0.035364
     52 C                     0.028657
     53 C                     0.033306
     54 C                    -0.026627
     55 C                    -0.010042
     56 C                     0.020303
     57 C                    -0.018491
     58 C                     0.002441
     59 C                     0.006727
     60 C                     0.034175
     61 C                    -0.019953
     62 C                     0.000722
     63 C                     0.012011
     64 C                    -0.029461
     65 C                     0.035085
     66 C                    -0.006082
     67 C                    -0.008347
     68 C                     0.008583
     69 C                    -0.011284
     70 C                     0.017558
     71 C                     0.007564
     72 C                    -0.021169
     73 C                     0.017325
     74 C                     0.013810
     75 C                     0.016813
     76 C                    -0.004174
     77 C                    -0.006867
     78 C                    -0.023550
     79 C                    -0.011813
     80 C                     0.015591
     81 C                    -0.026725
     82 C                    -0.044971
     83 C                    -0.028387
     84 C                     0.026306
     85 C                    -0.030281
     86 C                     0.016199
     87 C                    -0.026364
     88 C                     0.012438
     89 O                    -0.490310
     90 C                    -0.080905
     91 H                     0.121992
     92 H                     0.119882
     93 H                     0.122028
     94 O                    -0.443784
     95 C                     0.594728
     96 C                    -0.244653
     97 H                     0.132607
     98 H                     0.127186
     99 C                    -0.193820
    100 H                     0.124292
    101 H                     0.122098
    102 C                    -0.181336
    103 H                     0.107113
    104 H                     0.114282
    105 C                     0.000530
    106 C                     0.103081
    107 C                    -0.126771
    108 H                     0.091373
    109 C                    -0.086507
    110 H                     0.100679
    111 C                    -0.083607
    112 H                     0.084761
    113 C                    -0.083096
    114 H                     0.098644
    115 C                    -0.125645
    116 H                     0.087705
    117 C                    -0.017182
    118 C                     0.042055
    119 C                     0.013152
    120 C                    -0.003138
    121 C                    -0.016259
    122 C                    -0.007072
    123 C                     0.035309
    124 C                    -0.025085
    125 C                    -0.003257
    126 C                     0.006740
    127 C                    -0.075765
    128 C                    -0.001197
    129 C                    -0.025007
    130 C                    -0.010342
    131 C                    -0.009988
    132 C                     0.002816
    133 C                    -0.096674
    134 C                    -0.005402
    135 C                     0.000693
    136 C                    -0.026398
    137 C                    -0.028710
    138 C                     0.065836
    139 C                    -0.020728
    140 C                    -0.000491
    141 C                     0.026385
    142 C                    -0.008849
    143 C                     0.004041
    144 C                    -0.025675
    145 C                     0.018045
    146 C                     0.021694
    147 C                     0.010315
    148 C                     0.006143
    149 C                    -0.026030
    150 C                    -0.008509
    151 C                    -0.008277
    152 C                     0.022071
    153 C                     0.003842
    154 C                     0.003249
    155 C                     0.000743
    156 C                    -0.007972
    157 C                    -0.011442
    158 C                     0.069269
    159 C                     0.026635
    160 C                     0.030598
    161 C                    -0.004097
    162 C                     0.000532
    163 C                     0.002197
    164 C                     0.004573
    165 C                    -0.008057
    166 C                    -0.003393
    167 C                    -0.010289
    168 C                    -0.011350
    169 C                     0.019783
    170 C                     0.027108
    171 C                     0.003001
    172 C                     0.000438
    173 C                    -0.020606
    174 C                    -0.047238
    175 C                    -0.004588
    176 C                    -0.007218
  ----------------------------------------
  Sum of atomic charges =     0.000000

 -----------------------------------------------------------------
                    Cartesian Multipole Moments
 -----------------------------------------------------------------
    Charge (ESU x 10^10)
                 0.0000
    Dipole Moment (Debye)
         X       3.7061      Y      -1.9686      Z       0.1806
       Tot       4.2004
    Quadrupole Moments (Debye-Ang)
        XX    -764.5711     XY      10.2074     YY    -793.8588
        XZ      33.6171     YZ      11.8853     ZZ    -825.5873
    Octopole Moments (Debye-Ang^2)
       XXX    1226.5965    XXY    -131.4734    XYY      58.2226
       YYY    -256.3931    XXZ     330.7996    XYZ     -27.4121
       YYZ     -80.3416    XZZ     -69.6121    YZZ     -39.1198
       ZZZ      55.0125
    Hexadecapole Moments (Debye-Ang^3)
      XXXX -173617.8623   XXXY     816.0771   XXYY  -35507.4642
      XYYY    1214.6619   YYYY  -34245.4492   XXXZ    3391.8935
      XXYZ     599.2640   XYYZ      45.2848   YYYZ     295.0085
      XXZZ  -36446.8775   XYZZ     151.6973   YYZZ   -9296.0973
      XZZZ     877.0196   YZZZ     142.3093   ZZZZ  -20667.2391
 -----------------------------------------------------------------
Archival summary:
1\1\mn366\SP\ProcedureUnspecified\6-31G**\428\afmv_a\SunOct710:36:212018SunOct710:36:212018\0\\#,ProcedureUnspecified,6-31G**,\\0,1\O\C,1,1.42263\O,2,1.19714,1,125.238\C,1,1.45237,2,115.131,3,4.99998,0\H,4,1.0971,1,107.977,2,-179.472,0\H,4,1.09717,1,111.387,2,65.1493,0\H,4,1.0973,1,114.969,2,-58.6405,0\C,2,1.50707,1,108.318,3,-178.19,0\H,8,1.09692,2,103.066,1,171.325,0\H,8,1.09729,2,109.59,1,53.3601,0\C,8,1.50821,2,115.448,1,-71.6121,0\H,11,1.0969,8,107.954,2,54.2163,0\H,11,1.09753,8,113.696,2,-67.1201,0\C,11,1.58109,8,114.523,2,168.31,0\H,14,1.09654,11,109.938,8,-173.974,0\H,14,1.0974,11,104.058,8,-54.3154,0\C,14,1.58391,11,119.136,8,60.6423,0\C,17,1.49385,14,124.125,11,-150.64,0\C,18,1.48259,17,60.5025,14,109.509,0\C,18,1.48321,17,129.779,14,-151.833,0\C,20,1.39006,18,109.997,17,153.34,0\C,21,1.38074,20,110.732,18,8.08653,0\C,22,1.39469,21,119.108,20,143.13,0\C,23,1.39703,22,121.072,21,3.78838,0\C,24,1.39137,23,109.249,22,-147.7,0\C,24,1.3969,23,120.247,22,1.52891,0\C,26,1.3784,24,118.527,23,-4.26489,0\C,27,1.40306,26,107.584,24,-138.433,0\C,25,1.40739,24,119.564,23,141.044,0\C,29,1.3695,25,117.312,24,-137.045,0\C,30,1.37884,29,123.727,25,2.00172,0\C,31,1.38864,30,120.957,29,0.506349,0\C,32,1.37359,31,111.194,30,141.24,0\C,33,1.35318,32,108.634,31,3.6333,0\C,32,1.38932,31,116.234,30,-4.23523,0\C,35,1.39667,32,116.011,31,139.569,0\C,36,1.4007,35,122.235,32,2.57481,0\C,37,1.35257,36,122.011,35,-2.75412,0\C,37,1.39078,36,120.055,35,-139.092,0\C,39,1.38966,37,110.532,36,137.973,0\C,40,1.36369,39,123.873,37,-148.308,0\C,30,1.40941,29,102.733,25,143.321,0\C,42,1.40324,30,111.385,29,-0.867939,0\C,43,1.32822,42,107.956,30,2.397,0\C,43,1.39566,42,121.562,30,-145.583,0\C,45,1.40519,43,120.896,42,140.378,0\C,42,1.40714,30,115.87,29,-148.169,0\C,47,1.39898,42,124.331,30,4.39325,0\C,45,1.41051,43,116.817,42,4.07873,0\C,49,1.3871,45,120.258,43,-3.06926,0\C,50,1.34668,49,115.553,45,141.775,0\C,51,1.39241,50,121.471,49,-2.23083,0\C,52,1.38513,51,121.498,50,-1.99162,0\C,53,1.34394,52,118.424,51,5.99322,0\C,53,1.36921,52,106.349,51,-143.124,0\C,54,1.38328,53,115.759,52,-144.133,0\C,56,1.37486,54,120.141,53,5.26318,0\C,52,1.39207,51,115.92,50,-139.468,0\C,58,1.3982,52,108.059,51,145.204,0\C,57,1.39966,56,123.521,54,-8.67578,0\C,60,1.38687,57,108.183,56,147.023,0\C,59,1.40773,58,122.015,52,-145.281,0\C,62,1.39608,59,117.11,58,-0.499296,0\C,28,1.41092,27,108.826,26,0.175785,0\C,64,1.39729,28,107.317,27,-2.27663,0\C,22,1.41102,21,109.976,20,0.512501,0\C,40,1.4114,39,106.811,37,8.71523,0\C,48,1.41408,47,105.433,42,135.828,0\C,57,1.41531,56,121.718,54,133.959,0\C,69,1.38551,57,111.934,56,-148.749,0\C,63,1.41647,62,122.15,59,-2.81747,0\C,71,1.39641,63,119.784,62,140.203,0\C,71,1.40576,63,120.651,62,1.81114,0\C,73,1.39783,71,108.837,63,142.103,0\C,62,1.43072,59,117.134,58,137.851,0\C,74,1.43079,73,108.799,71,0.640188,0\C,48,1.43646,47,120.015,42,-4.38353,0\C,17,1.51407,14,108.932,11,65.8052,0\C,78,1.37565,17,121.594,14,-87.4966,0\H,79,1.08554,78,115.805,17,-17.3919,0\C,78,1.43004,17,118.851,14,81.8999,0\H,81,1.08564,78,117.261,17,12.2513,0\C,79,1.43212,78,120.444,17,152.867,0\H,83,1.08538,79,120.426,78,-167.392,0\C,83,1.38709,79,117.688,78,13.7843,0\H,85,1.08639,83,118.001,79,177.113,0\C,85,1.39102,83,124.016,79,-5.32723,0\H,87,1.08628,85,118.276,83,-170.443,0\C,5,2.52451,4,107.366,1,-67.8949,0\C,89,1.38235,5,98.0371,4,-113.116,0\C,90,1.37491,89,120.476,5,110.304,0\C,91,1.38005,90,118.457,89,2.95777,0\C,89,1.39164,5,100.926,4,135.489,0\C,93,1.39019,89,119.444,5,-124.629,0\C,92,1.39832,91,122.854,90,0.216569,0\C,95,1.33248,92,119.854,91,137.078,0\C,95,1.35729,92,118.461,91,-0.79405,0\C,97,1.36364,95,106.931,92,145.101,0\C,96,1.38143,95,109.408,92,-141.142,0\C,94,1.40419,93,121.685,89,11.465,0\C,94,1.40983,93,124.277,89,-137.208,0\C,101,1.4051,94,118.182,93,10.5437,0\C,102,1.36879,101,119.851,94,-0.943202,0\C,103,1.35771,102,111.241,101,146.25,0\C,103,1.3704,102,119.429,101,-5.58575,0\C,105,1.39964,103,115.886,102,144.254,0\C,102,1.40333,101,120.928,94,135.075,0\C,107,1.36216,102,121.81,101,-1.71704,0\C,108,1.36889,107,117.75,102,-0.153555,0\C,107,1.40109,102,108.415,101,-145.637,0\C,109,1.40216,108,105.863,107,-147.376,0\C,111,1.39206,109,110.912,108,4.30148,0\C,112,1.39391,111,106.601,109,-4.58392,0\C,112,1.40245,111,124.051,109,135.518,0\C,106,1.40654,105,123.851,103,1.97048,0\C,115,1.38066,106,117.711,105,3.80854,0\C,115,1.40462,106,123.752,105,-140.932,0\C,101,1.41015,94,106.776,93,145.26,0\C,118,1.37142,101,110.079,94,4.55171,0\C,119,1.36321,118,118.346,101,-147.565,0\C,120,1.35632,119,115.486,118,137.311,0\C,114,1.41102,112,120.724,111,-137.182,0\C,122,1.36393,114,123.065,112,0.975813,0\C,123,1.40532,122,121.068,114,139.894,0\C,124,1.40753,123,119.686,122,-8.43628,0\C,125,1.40412,124,119.418,123,8.88174,0\C,126,1.38242,125,108.308,124,-148.65,0\C,126,1.39119,125,120.055,124,-3.26233,0\C,123,1.41016,122,119.558,114,-3.72335,0\C,129,1.4058,123,107.333,122,142.668,0\C,91,1.41233,90,122.146,89,145.475,0\C,131,1.3886,91,107.631,90,-140.729,0\C,132,1.38401,131,122.006,91,141.069,0\C,132,1.39615,131,108.004,91,-3.00651,0\C,134,1.30865,132,122.642,131,146.136,0\C,135,1.38047,134,120.338,132,-0.141737,0\C,135,1.40044,134,122.866,132,-140.891,0\C,137,1.37837,135,111.04,134,141.461,0\C,138,1.38214,137,126.321,135,-136.057,0\C,139,1.37671,138,128.376,137,137.798,0\C,138,1.4002,137,105.022,135,1.87408,0\C,140,1.41238,139,115.48,138,-3.75141,0\C,142,1.41207,140,121.599,139,0.57678,0\C,140,1.41766,139,108.286,138,-143.731,0\C,133,1.42371,132,119.867,131,-3.00963,0\C,145,1.37268,133,121.233,132,5.39912,0\C,130,1.46423,129,111.619,123,11.8188,0\C,116,1.51393,115,111.206,106,-153.623,0\C,147,1.53855,130,127.137,129,146.347,0\C,149,1.48778,147,116.965,130,-143.162,0\C,150,1.40602,149,125.811,147,-105.26,0\H,151,1.08606,150,123.287,149,-9.18974,0\C,150,1.40821,149,117.329,147,65.1002,0\H,153,1.08591,150,116.778,149,14.2194,0\C,153,1.41262,150,120.117,149,-178.853,0\H,155,1.08582,153,119.278,150,-179.931,0\C,155,1.37992,153,123.402,150,3.75056,0\H,157,1.08668,155,116.069,153,-177.939,0\C,157,1.40221,155,117.36,153,1.97028,0\H,159,1.0858,157,117.872,155,-176.494,0\C,149,1.55007,147,117.81,130,3.61305,0\H,161,1.09729,149,107.109,147,-10.6736,0\H,161,1.09732,149,105.643,147,103.059,0\C,161,1.53755,149,116.653,147,-137.732,0\H,164,1.09639,161,114.133,149,64.3976,0\H,164,1.09669,161,107.487,149,-57.7925,0\C,164,1.55739,161,110.561,149,176.328,0\H,167,1.09737,164,110.822,161,-46.474,0\H,167,1.09765,164,109.447,161,73.5632,0\C,167,1.5402,164,115.135,161,-175.297,0\O,170,1.2668,167,120.668,164,121.39,0\O,170,1.4198,167,117.199,164,-51.3115,0\C,172,1.47099,170,118.048,167,174.855,0\H,173,1.0965,172,113.915,170,-176.369,0\H,173,1.09721,172,110.298,170,63.9909,0\H,173,1.09778,172,106.841,170,-51.1114,0\\\@

 Total job time:  923.90s(wall), 7841.79s(cpu) 
 Sun Oct  7 10:36:21 2018

        *************************************************************
        *                                                           *
        *  Thank you very much for using Q-Chem.  Have a nice day.  *
        *                                                           *
        *************************************************************


