
Running Job 1 of 1 ./8/20.qcin
qchem ./8/20.qcin_8219.0 /tmpu/cab_g/afmv_a/scratch_qchem/qchem8219/ 1
/tmpu/appuserlic/qchem4.4/serial-multicore/exe/qcprog.exe_s ./8/20.qcin_8219.0 /tmpu/cab_g/afmv_a/scratch_qchem/qchem8219/
Check license passed

                  Welcome to Q-Chem
     A Quantum Leap Into The Future Of Chemistry


 Q-Chem 4.4, Q-Chem, Inc., Pleasanton, CA (2016)

 Y. Shao,  Z. Gan,  E. Epifanovsky,  A. T. B. Gilbert,  M. Wormit,  
 J. Kussmann,  A. W. Lange,  A. Behn,  J. Deng,  X. Feng,  D. Ghosh,  
 M. Goldey,  P. R. Horn,  L. D. Jacobson,  I. Kaliman,  F. Rob,  
 R. Z. Khaliullin,  T. Kus,  A. Landau,  J. Liu,  E. I. Proynov,  Y. M. Rhee,  
 R. M. Richard,  M. A. Rohrdanz,  R. P. Steele,  E. J. Sundstrom,  
 H. L. Woodcock III,  P. M. Zimmerman,  D. Zuev,  B. Albrecht,  E. Alguire,  
 B. Austin,  S. A. Baeppler,  G. J. O. Beran,  Y. A. Bernard,  E. Berquist,  
 K. Brandhorst,  K. B. Bravaya,  S. T. Brown,  D. Casanova,  C.-M. Chang,  
 Y. Chen,  S. H. Chien,  K. D. Closser,  M. P. Coons,  D. L. Crittenden,  
 S. Dasgupta,  M. Diedenhofen,  R. A. DiStasio Jr.,  H. Do,  A. D. Dutoi,  
 R. G. Edgar,  P.-T. Fang,  S. Fatehi,  Q. Feng,  L. Fusti-Molnar,  
 A. Ghysels,  A. Golubeva-Zadorozhnaya,  J. Gomes,  A. Gunina,  
 M. W. D. Hanson-Heine,  P. H. P. Harbach,  A. W. Hauser,  J. E. Herr,  
 E. G. Hohenstein,  Z. C. Holden,  K. Hui,  T.-C. Jagau,  H. Ji,  B. Kaduk,  
 K. Khistyaev,  Jaehoon Kim,  Jihan Kim,  R. A. King,  P. Klunzinger,  
 K. Koh,  D. Kosenkov,  T. Kowalczyk,  C. M. Krauter,  A. Kunitsa,  
 K. U. Lao,  A. Laurent,  K. V. Lawler,  J. Lee,  D. Lefrancois,  S. Lehtola,  
 S. V. Levchenko,  C. Y. Lin,  Y.-S. Lin,  F. Liu,  E. Livshits,  
 R. C. Lochan,  A. Luenser,  P. Manohar,  S. F. Manzer,  S.-P. Mao,  Y. Mao,  
 N. Mardirossian,  A. V. Marenich,  L. A. Martinez-Martinez,  S. A. Maurer,  
 N. J. Mayhall,  J.-M. Mewes,  A. F. Morrison,  K. Nanda,  T. S. Nguyen-Beck,  
 C. M. Oana,  R. Olivares-Amaya,  D. P. O'Neill,  J. A. Parkhill,  
 T. M. Perrine,  R. Peverati,  P. A. Pieniazek,  F. Plasser,  A. Prociuk,  
 D. R. Rehn,  E. Rosta,  N. J. Russ,  N. Sergueev,  S. M. Sharada,  
 S. Sharma,  D. W. Small,  A. Sodt,  T. Stauch,  T. Stein,  D. Stuck,  
 Y.-C. Su,  A. J. W. Thom,  T. Tsuchimochi,  L. Vogt,  O. Vydrov,  T. Wang,  
 M. A. Watson,  J. Wenzel,  A. White,  C. F. Williams,  V. Vanovschi,  
 K. Yao,  S. Yeganeh,  S. R. Yost,  Z.-Q. You,  I. Y. Zhang,  X. Zhang,  
 Y. Zhao,  B. R. Brooks,  G. K. L. Chan,  D. M. Chipman,  C. J. Cramer,  
 W. A. Goddard III,  M. S. Gordon,  W. J. Hehre,  A. Klamt,  
 H. F. Schaefer III,  M. W. Schmidt,  C. D. Sherrill,  D. G. Truhlar,  
 A. Warshel,  X. Xu,  A. Aspuru-Guzik,  R. Baer,  A. T. Bell,  N. A. Besley,  
 J.-D. Chai,  A. Dreuw,  B. D. Dunietz,  T. R. Furlani,  S. R. Gwaltney,  
 C.-P. Hsu,  Y. Jung,  J. Kong,  D. S. Lambrecht,  W. Liang,  C. Ochsenfeld,  
 V. A. Rassolov,  L. V. Slipchenko,  J. E. Subotnik,  T. Van Voorhis,  
 J. M. Herbert,  A. I. Krylov,  P. M. W. Gill,  M. Head-Gordon

 Contributors to earlier versions of Q-Chem not listed above: 
 R. D. Adamson,  J. Baker,  E. F. C. Byrd,  A. K. Chakraborty,  C.-L. Cheng,  
 H. Dachsel,  R. J. Doerksen,  G. Hawkins,  A. Heyden,  S. Hirata,  
 G. Kedziora,  F. J. Keil,  C. Kelley,  P. P. Korambath,  W. Kurlancheek,  
 A. M. Lee,  M. S. Lee,  D. Liotard,  I. Lotan,  P. E. Maslen,  N. Nair,  
 D. Neuhauser,  R. Olson,  B. Peters,  J. Ritchie,  N. E. Schultz,  
 N. Shenvi,  A. C. Simmonett,  K. S. Thanthiriwatte,  Q. Wu,  W. Zhang

 Please cite Q-Chem as follows:
 Y. Shao et al., Mol. Phys. 113, 184-215 (2015)
 DOI: 10.1080/00268976.2014.952696

 Q-Chem 4.4.2 for Intel X86 Linux

 Parts of Q-Chem use Armadillo 5.200.1 (Boston Tea Smuggler).
 http://arma.sourceforge.net/

 Q-Chem begins on Sun Oct  7 07:55:58 2018  

Host: 
0

     Scratch files written to /tmpu/cab_g/afmv_a/scratch_qchem/qchem8219//
 Dec716 11556_ 22328  22283 4050   
Processing $rem in /tmpu/appuserlic/qchem4.4/serial-multicore/config/preferences.
 MEM_TOTAL  2000 
FILE_GEOM_ORG=        593

Checking the input file for inconsistencies... 	...done.

--------------------------------------------------------------
User input:
--------------------------------------------------------------
$comment
SP
$end

$rem
MEM_STATIC 5000
MEM_TOTAL 20000
JOBTYPE SP
EXCHANGE B3LYP
BASIS 6-31g(d,p)
$end

$molecule
0 1
O         -21.300000    -20.861000      6.005000
C         -21.736000    -22.240000      6.108000
H         -22.563000    -22.360000      5.398000
H         -21.917000    -22.448000      7.170000
H         -20.971000    -22.856000      5.618000
O         -19.522000    -21.093000      7.441000
C         -20.135000    -20.411000      6.626000
C         -19.691000    -19.016000      6.116000
H         -19.440000    -19.289000      5.084000
H         -18.736000    -18.692000      6.547000
C         -20.784000    -17.844000      6.302000
H         -21.791000    -18.000000      5.896000
H         -20.802000    -17.658000      7.383000
C         -20.057000    -16.521000      5.886000
H         -19.135000    -16.442000      6.474000
H         -19.730000    -16.688000      4.852000
C         -20.997000    -15.294000      6.030000
C         -21.414000    -15.095000      7.431000
C         -20.584000    -14.366000      8.235000
H         -19.608000    -14.113000      7.830000
C         -20.965000    -14.002000      9.527000
H         -20.324000    -13.320000     10.079000
C         -22.238000    -14.237000     10.017000
H         -22.478000    -13.927000     11.030000
C         -23.066000    -15.028000      9.226000
H         -24.082000    -15.219000      9.559000
C         -22.645000    -15.441000      7.958000
H         -23.371000    -15.973000      7.350000
C         -25.510000    -12.976000      3.936000
C         -24.268000    -11.028000      4.684000
C         -23.085000     -9.728000      0.544000
C         -22.805000    -15.994000      0.921000
C         -19.923000    -11.130000      0.550000
C         -24.617000    -12.387000      4.832000
C         -21.030000    -14.449000     -0.622000
C         -25.184000    -10.511000      1.312000
C         -20.288000    -11.876000      4.542000
C         -21.464000    -15.926000      1.278000
C         -20.875000    -14.109000      5.080000
C         -19.504000    -12.749000      3.717000
C         -19.669000    -14.477000      1.482000
C         -20.637000    -13.109000     -0.702000
C         -22.496000    -12.215000      5.549000
C         -21.890000    -10.961000     -0.883000
C         -22.026000    -15.053000      4.944000
C         -22.152000    -15.889000      3.655000
C         -20.984000    -10.373000      0.017000
C         -24.953000    -13.498000     -0.351000
C         -24.272000    -11.400000     -0.723000
C         -25.253000    -11.376000      0.257000
C         -25.548000    -10.904000      2.576000
C         -23.490000    -15.911000      3.241000
C         -21.164000    -12.677000      5.337000
C         -24.713000    -10.318000      3.530000
C         -20.533000    -15.119000      0.530000
C         -22.924000    -10.958000      5.095000
C         -19.210000    -12.313000      2.381000
C         -24.941000    -15.252000      1.367000
C         -24.086000     -9.616000      1.527000
C         -19.906000    -14.066000      3.919000
C         -26.121000    -13.194000      1.750000
C         -19.275000    -13.245000      1.302000
C         -20.630000    -10.609000      4.092000
C         -22.805000    -13.188000     -1.401000
C         -22.376000    -14.469000     -0.928000
C         -20.351000    -10.155000      2.791000
C         -23.809000    -15.998000      1.891000
C         -21.110000    -15.817000      2.650000
C         -24.518000    -14.771000      0.103000
C         -23.360000    -14.447000      5.021000
C         -22.433000     -9.472000      3.231000
C         -19.970000    -14.956000      2.793000
C         -19.649000    -11.046000      1.904000
C         -25.677000    -14.416000      2.194000
C         -21.696000     -9.562000      0.864000
C         -26.025000    -12.282000      2.805000
C         -23.171000    -10.491000     -0.677000
C         -21.952000    -10.156000      4.394000
C         -21.416000     -9.416000      2.231000
C         -23.534000    -13.094000      5.356000
C         -24.197000    -15.020000      4.043000
C         -24.059000    -12.706000     -1.069000
C         -23.818000     -9.500000      2.876000
C         -19.785000    -12.459000      0.243000
C         -23.244000    -15.249000     -0.164000
C         -21.717000    -12.335000     -1.230000
C         -25.303000    -14.285000      3.545000
C         -25.726000    -12.670000      0.431000
O         -21.758000    -24.408000     -9.073000
C         -23.099000    -24.834000     -8.873000
H         -23.176000    -25.732000     -8.247000
H         -23.563000    -25.087000     -9.834000
H         -23.741000    -24.028000     -8.496000
O         -21.535000    -23.812000     -6.842000
C         -21.092000    -23.983000     -7.965000
C         -19.662000    -23.591000     -8.312000
H         -19.632000    -23.206000     -9.339000
H         -19.111000    -24.534000     -8.417000
C         -18.984000    -22.548000     -7.315000
H         -18.257000    -21.924000     -7.849000
H         -19.754000    -21.868000     -6.930000
C         -18.173000    -23.154000     -6.078000
H         -18.734000    -23.973000     -5.611000
H         -17.337000    -23.758000     -6.454000
C         -17.790000    -22.018000     -5.060000
C         -16.884000    -20.990000     -5.575000
C         -17.237000    -19.703000     -6.074000
H         -18.286000    -19.426000     -6.117000
C         -16.278000    -18.812000     -6.531000
H         -16.537000    -17.814000     -6.872000
C         -14.892000    -19.113000     -6.456000
H         -14.088000    -18.438000     -6.734000
C         -14.485000    -20.310000     -5.867000
H         -13.433000    -20.578000     -5.820000
C         -15.517000    -21.302000     -5.498000
H         -15.301000    -22.280000     -5.078000
C         -16.192000    -21.021000      0.129000
C         -17.338000    -19.052000     -0.472000
C         -21.039000    -19.937000      2.197000
C         -19.171000    -25.218000     -0.809000
C         -23.061000    -21.084000     -0.503000
C         -16.467000    -20.039000     -0.856000
C         -21.793000    -24.428000     -0.366000
C         -18.685000    -20.211000      2.635000
C         -20.290000    -19.798000     -3.217000
C         -20.024000    -24.845000     -1.898000
C         -18.837000    -21.499000     -4.034000
C         -21.089000    -20.865000     -3.487000
C         -21.647000    -23.521000     -2.588000
C         -22.655000    -23.411000      0.034000
C         -17.970000    -19.685000     -2.624000
C         -22.356000    -21.721000      1.766000
C         -17.766000    -22.368000     -3.584000
C         -18.183000    -23.633000     -2.966000
C         -22.714000    -20.723000      0.854000
C         -18.967000    -23.710000      2.388000
C         -20.316000    -22.041000      2.954000
C         -18.951000    -21.524000      3.050000
C         -17.527000    -19.950000      1.852000
C         -17.372000    -23.866000     -1.830000
C         -18.952000    -20.146000     -3.485000
C         -17.834000    -18.983000      0.891000
C         -21.316000    -24.491000     -1.660000
C         -18.258000    -18.862000     -1.540000
C         -22.232000    -21.141000     -2.620000
C         -17.493000    -24.354000      0.558000
C         -19.728000    -19.413000      2.213000
C         -20.276000    -21.939000     -3.876000
C         -17.025000    -22.308000      1.829000
C         -22.520000    -22.435000     -2.251000
C         -20.628000    -18.956000     -2.117000
C         -21.326000    -23.918000      1.801000
C         -21.020000    -24.817000      0.733000
C         -21.735000    -19.182000     -1.332000
C         -17.844000    -24.681000     -0.765000
C         -19.515000    -24.084000     -2.970000
C         -18.681000    -24.578000      1.326000
C         -16.818000    -21.811000     -2.581000
C         -20.076000    -18.374000      0.068000
C         -20.543000    -23.257000     -3.418000
C         -22.459000    -20.350000     -1.513000
C         -16.740000    -23.181000      0.828000
C         -21.871000    -19.605000      1.086000
C         -16.697000    -20.971000      1.418000
C         -21.384000    -21.224000      2.600000
C         -19.587000    -18.513000     -1.272000
C         -21.434000    -18.801000      0.079000
C         -16.837000    -20.444000     -2.183000
C         -16.634000    -22.712000     -1.575000
C         -20.287000    -23.390000      2.624000
C         -19.184000    -18.676000      1.095000
C         -22.955000    -22.427000     -0.930000
C         -19.655000    -25.151000      0.505000
C         -22.371000    -23.043000      1.364000
C         -16.262000    -22.384000     -0.254000
C         -18.147000    -22.590000      2.638000
$end

--------------------------------------------------------------
 ----------------------------------------------------------------
             Standard Nuclear Orientation (Angstroms)
    I     Atom           X                Y                Z
 ----------------------------------------------------------------
    1      O       0.5559196340    -6.0262233105     1.0714040925
    2      C      -0.3681022171    -6.7909478984     1.8860978529
    3      H      -0.6197141073    -6.1611881869     2.7477956900
    4      H       0.0876842830    -7.7729365944     2.0644959109
    5      H      -1.3323047866    -6.7933118275     1.3616087521
    6      O       0.6576989481    -7.5630474723    -0.6330067931
    7      C       0.9300245703    -6.4460158382    -0.2049915086
    8      C       1.6454009268    -5.3314952165    -1.0108087660
    9      H       0.8033220565    -4.6370662193    -1.1167594337
   10      H       1.8742624471    -5.6336919022    -2.0399159362
   11      C       2.9787194432    -4.7415340003    -0.3201304781
   12      H       2.9114298584    -4.3655349346     0.7081291264
   13      H       3.7140746258    -5.5502217214    -0.4137142649
   14      C       3.6098728529    -3.7769980266    -1.3799558075
   15      H       3.7370980522    -4.3368672500    -2.3139949937
   16      H       2.8303767120    -3.0336997578    -1.5894013846
   17      C       4.9225108796    -3.1404288081    -0.8492713054
   18      C       5.9498070492    -4.1649896155    -0.5823841907
   19      C       6.7365080900    -4.5523060237    -1.6301649274
   20      H       6.4527850328    -4.1914235983    -2.6149872982
   21      C       7.8267232447    -5.4021869780    -1.4402852813
   22      H       8.4919906657    -5.5804586939    -2.2807300766
   23      C       8.2518790826    -5.7905272090    -0.1816001029
   24      H       9.1101968808    -6.4507025699    -0.0959960718
   25      C       7.4222272719    -5.4471411772     0.8817483377
   26      H       7.7275276941    -5.7100611313     1.8903566611
   27      C       6.2949416521    -4.6479865084     0.6667763704
   28      H       5.7423116489    -4.3334728012     1.5473700381
   29      C       6.8773352417     0.3699511326     2.8898493646
   30      C       8.4924457735     0.6260668645     1.0946906803
   31      C       6.9747340570     4.6571896990    -0.1997933244
   32      C       2.1080472725     0.9961811912     1.3479991189
   33      C       4.9951192039     3.5437994516    -2.8085039620
   34      C       7.5847794574    -0.1760406262     1.8181210030
   35      C       2.0222038506     2.9040223630    -0.7187064649
   36      C       7.3390754329     3.8414384401     1.9934962701
   37      C       6.6506329870    -0.1651364791    -2.4495145802
   38      C       1.9873840603     0.5760727443     0.0291726398
   39      C       5.3217235798    -1.7294505020    -1.2632500965
   40      C       5.2960109623    -0.0238055450    -2.8994420602
   41      C       2.7604791957     0.9617021697    -2.1195143681
   42      C       2.9393080393     3.6337908942    -1.4821243045
   43      C       7.5273401441    -0.9345676679    -0.2946145347
   44      C       4.8964963581     5.0667683342    -0.9053543838
   45      C       4.8113554435    -1.9802167269     0.1191657837
   46      C       3.4854427039    -1.3233865456     0.5513954910
   47      C       5.6017390671     4.5153736804    -1.9894100361
   48      C       3.9999653483     3.6345517985     2.7341991525
   49      C       5.2849707921     4.9769997751     1.4890712717
   50      C       6.1004785083     4.2795352456     2.3676083484
   51      C       7.8063386098     2.6130724899     2.3902622161
   52      C       3.6112403606    -0.8313821724     1.8568573427
   53      C       6.6803528475    -1.1552174414    -1.4200203268
   54      C       8.5585089511     2.0234592607     1.3717667485
   55      C       1.9727015940     1.5234085862    -1.0570378499
   56      C       8.4016386659     0.1612550278    -0.2303983830
   57      C       4.8433980332     1.2959677967    -3.2382161188
   58      C       3.5242933383     1.2614439760     3.1468484000
   59      C       7.8674559566     4.0060321741     0.6719150486
   60      C       4.4654059452    -0.8429702408    -2.1405207818
   61      C       5.6935429182     2.1640755910     3.6508974332
   62      C       3.5373908109     1.7183749026    -2.8470545509
   63      C       7.5115102125     0.9226140394    -2.4705434212
   64      C       3.0934163819     4.4317903179     0.6473154196
   65      C       2.2099527834     3.3071897889     0.5881823463
   66      C       7.0961977239     2.2242093968    -2.8020898922
   67      C       2.9021539397     0.2950014868     2.2572150577
   68      C       2.7162682271    -0.5612524827    -0.4121891158
   69      C       3.1110007980     2.5294600920     2.6679847393
   70      C       5.7009277915    -1.5697046266     1.2113479357
   71      C       8.4474144107     2.4570630974    -1.0372087009
   72      C       3.1672791675    -0.3589582980    -1.7601639652
   73      C       5.7162890403     2.4176954817    -3.1652278272
   74      C       4.8373680563     1.0932999605     3.5616777324
   75      C       6.8990937459     4.3144098226    -1.5912161572
   76      C       6.9622001426     1.7476797941     3.2372449375
   77      C       5.7326647115     5.2907655223     0.1693291717
   78      C       8.3970609868     1.0616592963    -1.3567376739
   79      C       7.6750274633     3.2094417232    -1.9724999961
   80      C       7.0071320145    -1.1161787992     0.9638507604
   81      C       4.9467379812    -0.9528058117     2.2291964422
   82      C       3.9996171767     4.5530311102     1.6861439856
   83      C       8.6130747585     2.9017414256     0.3118101402
   84      C       3.7329755853     3.0835933815    -2.5351217041
   85      C       2.2375201916     2.3533469401     1.6055042510
   86      C       3.5673689527     4.6123522055    -0.6501283616
   87      C       5.5669972620    -0.0170626462     3.0958729406
   88      C       5.2925582912     3.5043224544     3.1890406653
   89      O     -10.2659477899     4.8324593357     3.3326545536
   90      C     -10.1305647682     4.5949595772     4.7272951174
   91      H     -10.4879026281     3.6028954474     5.0311493856
   92      H     -10.7227217484     5.3233322785     5.2944364744
   93      H      -9.1094941871     4.7784697914     5.0846015259
   94      O      -8.6504861998     3.2453409158     2.8290227712
   95      C      -9.5128612649     4.0478914912     2.5146331705
   96      C      -9.7788750718     4.3807022204     1.0526322563
   97      H     -10.0334289166     5.4443436909     0.9647507318
   98      H     -10.7377057348     3.9066242307     0.8081556331
   99      C      -8.5964020188     4.0146846151     0.0479777925
  100      H      -8.5858018989     4.7090488332    -0.8010257235
  101      H      -7.6363836863     4.1397526283     0.5639698401
  102      C      -8.6350893990     2.5599254050    -0.6133125576
  103      H      -8.8826068533     1.7995635221     0.1377905757
  104      H      -9.5477684283     2.4597838273    -1.2150406139
  105      C      -7.2864367348     2.2596746352    -1.3646410255
  106      C      -6.9926797169     3.1307654073    -2.5038305099
  107      C      -6.1392447463     4.2715705908    -2.5176610624
  108      H      -5.6544916713     4.5760123397    -1.5949971594
  109      C      -5.9379282653     5.0153260101    -3.6703581391
  110      H      -5.2554212637     5.8596074862    -3.6975423574
  111      C      -6.5168313146     4.6321311389    -4.9094121938
  112      H      -6.3487936384     5.1292150137    -5.8601992156
  113      C      -7.2648602501     3.4569278257    -4.9781790775
  114      H      -7.7411086109     3.1535299325    -5.9065508873
  115      C      -7.5740693516     2.7422831611    -3.7216275525
  116      H      -8.1863188273     1.8471320593    -3.6633601999
  117      C      -4.1347293344    -1.7628528374    -3.4525460028
  118      C      -2.5756775848    -0.0837034472    -2.9036444020
  119      C      -0.8301823149    -2.3658702566     0.7500041740
  120      C      -7.1687555289    -2.8458918665     0.6694444766
  121      C      -2.6447958848    -0.4664909483     3.1569999853
  122      C      -3.8074418070    -0.3835906860    -3.4262250607
  123      C      -5.5828243510    -2.4962666843     2.9184036872
  124      C      -1.4570720120    -3.1525446549    -1.4400617379
  125      C      -3.8403840883     2.1735028994     0.2761955261
  126      C      -7.2245255976    -1.6338490659     1.4313506053
  127      C      -6.0336431636     1.7927908483    -0.5704283352
  128      C      -4.6173026243     1.9295204988     1.3655348564
  129      C      -6.0967900450    -0.1652946310     2.6291675341
  130      C      -4.3210010793    -2.1950262831     3.4227738407
  131      C      -4.0661026360     1.4649510055    -2.0028006017
  132      C      -2.1233441687    -2.7931847464     2.5522363307
  133      C      -6.7769509538     0.8306648361    -1.3619515919
  134      C      -7.3379608253    -0.3091147472    -0.6256035589
  135      C      -1.7212672717    -1.4572124195     2.6493141896
  136      C      -4.3010874880    -4.7611979253    -0.1334077564
  137      C      -2.2969851007    -4.1984012770     0.6363659466
  138      C      -2.2070031929    -4.1645226038    -0.8232523226
  139      C      -1.9878322389    -2.4907004035    -2.5813021895
  140      C      -7.1338194718    -1.4818155704    -1.3908519414
  141      C      -4.6283336813     2.0594958754    -0.8854024411
  142      C      -1.6508107870    -1.1358300273    -2.5212871528
  143      C      -6.4605458982    -1.4967875872     2.5488358043
  144      C      -2.7476188055     1.0217534213    -2.0252792568
  145      C      -4.0573604057     1.1873656288     2.4924709064
  146      C      -6.2034112815    -3.7338601585    -1.2568192115
  147      C      -0.7629258632    -2.2547408496    -0.6559402860
  148      C      -5.9052073357     1.5946001627     0.9240647863
  149      C      -4.0166305514    -3.7758369753    -2.3689383532
  150      C      -4.8109034688     0.2266691820     3.1271174137
  151      C      -2.4844541907     1.7327009753     0.2950575638
  152      C      -4.1371614109    -4.1033652579     2.2103282405
  153      C      -5.5125164980    -3.7158787734     2.2370416998
  154      C      -1.9386891879     1.0817453286     1.3772531596
  155      C      -7.0804398628    -2.7532982830    -0.7570409847
  156      C      -7.3348348292    -0.3893167171     0.7783903414
  157      C      -5.6430332311    -4.3600504516    -0.0969889837
  158      C      -6.0524345139     0.1713883683    -2.4823945700
  159      C      -0.9949936927     0.1386385292    -0.5161916844
  160      C      -6.6356897618     0.5439348273     1.5410532613
  161      C      -2.7686882905     0.7008266350     2.4199244589
  162      C      -5.3294329704    -3.4285141365    -2.3332780907
  163      C      -0.9362214184    -1.1594340737     1.5050117535
  164      C      -3.2623942633    -2.7617437639    -3.0521781210
  165      C      -1.5442305875    -3.3448366131     1.4352507991
  166      C      -1.9613362848     1.1352431314    -0.8725668541
  167      C      -0.9575464200     0.0615267846     0.9048169294
  168      C      -4.7435776244     0.5613216620    -2.8852589009
  169      C      -6.2789536271    -1.1721532379    -2.4466448319
  170      C      -3.5576124088    -4.6371691499     1.0208702298
  171      C      -0.9267164989    -0.9882748107    -1.3328933124
  172      C      -3.9739652800    -0.8294623299     3.4712840846
  173      C      -6.2751584415    -3.8592628316     1.0434826197
  174      C      -3.3891888769    -3.1520220176     2.9745939844
  175      C      -5.4079545258    -2.1529448978    -2.9666614522
  176      C      -3.4984566632    -4.4748273009    -1.2572741295
 ----------------------------------------------------------------
 Molecular Point Group                 C1    NOp =  1
 Largest Abelian Subgroup              C1    NOp =  1
 Nuclear Repulsion Energy = 34739.2844030454 hartrees
 There are      462 alpha and      462 beta electrons
 Requested basis set is 6-31G(d,p)
 There are 676 shells and 2360 basis functions

 Total QAlloc Memory Limit  20000 MB
 Mega-Array Size      4888 MB
 MEM_STATIC part      5000 MB
 A cutoff of  1.0D-08 yielded  37723 shell pairs
 There are    530048 function pairs
 
 -------------------------------------------------------
 OpenMP Integral Computing Module                       
 Release: version 1.0, May 2013, Q-Chem Inc. Pittsburgh 
 -------------------------------------------------------
 Integral Job Info:
 Integral job number is                      11
 Integral operator is                         1
 short-range coefficients                     0
 long-range coefficients              100000000
 Omega coefficients                           0
 if combine SR and LR in K                    0
 Integral screening is                        0
 Integral computing path is                   2
 max size of driver memory is            800000
 size of driver memory is                593474
 size of scratch memory is              2260544
 max col of scratch BK array               1296
 max len of scratch array in speh3          155
 max len of scratch index in speh4           18
 max int batch size is                      520
 min int batch size is                       52
 fixed nKL is                                52
 max L of basis functions is                  2
 order of int derivative is                   0
 number of shells is                        676
 number of basis is                        2360
 number of cartesian basis is              2360
 number of contracted shell pairs         37723
 number of primitive shell pairs         114164
 maxK2 (contraction) of shell pair           36
 max number of K2 of shell pair               1
 max number of CS2 of shell pair           7213
 max number of PS2 of shell pair          34698
 mem total for path MDJ                 1506536
 -------------------------------------------------------
 Smallest overlap matrix eigenvalue = 2.50E-04

 Scale SEOQF with 1.000000e-02/1.000000e-02/1.000000e-02

 Standard Electronic Orientation quadrupole field applied
 Nucleus-field energy     =     0.0000001238 hartrees
 Guess from superposition of atomic densities
 Warning:  Energy on first SCF cycle will be non-variational
 A restricted hybrid HF-DFT SCF calculation will be
 performed using Pulay DIIS extrapolation
 Exchange:     0.2000 Hartree-Fock + 0.0800 Slater + 0.7200 B88
 Correlation:  0.1900 VWN1RPA + 0.8100 LYP
 Using SG-1 standard quadrature grid
 SCF converges when DIIS error is below 1.0E-05
 using 16 threads for integral computing 
 -------------------------------------------------------
 OpenMP BLAS3 based DFT computing Module                
 Release: version 1.0, May 2013, Q-Chem Inc. Pittsburgh 
 -------------------------------------------------------
 ---------------------------------------
  Cycle       Energy         DIIS Error
 ---------------------------------------
    1   -5858.0497920515      1.82E-02
    2   -5803.1445677757      1.28E-03
    3   -5802.4160343155      1.76E-03
    4   -5804.0027193405      6.24E-04
    5   -5804.2006809374      3.04E-04
    6   -5804.2613011000      1.36E-04
    7   -5804.2742677496      4.61E-05
    8   -5804.2751660273      3.09E-05
    9   -5804.2758436359      9.01E-06 Convergence criterion met
 ---------------------------------------
 SCF time:  CPU 7302.69 s  wall 843.86 s
 SCF   energy in the final basis set = -5804.2758436359
 Total energy in the final basis set = -5804.2758436359
 
 --------------------------------------------------------------
 
                    Orbital Energies (a.u.)
 --------------------------------------------------------------
 
 Alpha MOs
 -- Occupied --
-19.206 -19.176 -19.144 -19.128 -10.324 -10.313 -10.249 -10.242
-10.240 -10.239 -10.236 -10.235 -10.235 -10.234 -10.231 -10.229
-10.227 -10.226 -10.225 -10.225 -10.224 -10.224 -10.223 -10.222
-10.222 -10.221 -10.221 -10.220 -10.220 -10.219 -10.219 -10.219
-10.218 -10.218 -10.218 -10.218 -10.218 -10.217 -10.217 -10.217
-10.217 -10.217 -10.217 -10.217 -10.217 -10.216 -10.216 -10.216
-10.216 -10.216 -10.216 -10.216 -10.216 -10.216 -10.216 -10.215
-10.215 -10.215 -10.215 -10.215 -10.215 -10.215 -10.215 -10.215
-10.215 -10.215 -10.214 -10.214 -10.214 -10.214 -10.214 -10.214
-10.214 -10.214 -10.214 -10.213 -10.213 -10.213 -10.213 -10.213
-10.213 -10.213 -10.213 -10.213 -10.213 -10.213 -10.213 -10.213
-10.213 -10.212 -10.212 -10.212 -10.212 -10.212 -10.212 -10.212
-10.212 -10.212 -10.211 -10.211 -10.211 -10.211 -10.211 -10.211
-10.210 -10.210 -10.210 -10.210 -10.210 -10.210 -10.210 -10.209
-10.209 -10.209 -10.209 -10.209 -10.209 -10.209 -10.209 -10.208
-10.208 -10.208 -10.207 -10.207 -10.207 -10.206 -10.206 -10.206
-10.206 -10.206 -10.206 -10.206 -10.205 -10.205 -10.204 -10.204
-10.204 -10.203 -10.203 -10.202 -10.202 -10.202 -10.199 -10.195
-10.194 -10.194 -10.192 -10.191  -1.105  -1.070  -1.022  -0.994
 -0.982  -0.980  -0.967  -0.963  -0.962  -0.960  -0.958  -0.957
 -0.937  -0.934  -0.925  -0.924  -0.923  -0.922  -0.921  -0.921
 -0.918  -0.917  -0.897  -0.896  -0.889  -0.887  -0.883  -0.882
 -0.875  -0.875  -0.857  -0.849  -0.842  -0.840  -0.837  -0.835
 -0.835  -0.834  -0.819  -0.819  -0.798  -0.797  -0.797  -0.795
 -0.794  -0.794  -0.792  -0.792  -0.790  -0.787  -0.783  -0.779
 -0.771  -0.770  -0.769  -0.767  -0.766  -0.766  -0.762  -0.762
 -0.747  -0.747  -0.744  -0.739  -0.734  -0.730  -0.716  -0.714
 -0.714  -0.713  -0.711  -0.710  -0.710  -0.708  -0.706  -0.706
 -0.705  -0.704  -0.704  -0.703  -0.702  -0.694  -0.672  -0.670
 -0.659  -0.657  -0.656  -0.654  -0.648  -0.646  -0.633  -0.631
 -0.627  -0.626  -0.624  -0.622  -0.621  -0.619  -0.616  -0.616
 -0.615  -0.613  -0.613  -0.612  -0.611  -0.608  -0.608  -0.607
 -0.606  -0.605  -0.602  -0.600  -0.569  -0.565  -0.564  -0.559
 -0.559  -0.558  -0.557  -0.556  -0.555  -0.554  -0.551  -0.550
 -0.537  -0.536  -0.531  -0.531  -0.527  -0.526  -0.526  -0.522
 -0.521  -0.519  -0.519  -0.519  -0.513  -0.513  -0.512  -0.511
 -0.507  -0.506  -0.503  -0.493  -0.492  -0.491  -0.489  -0.485
 -0.484  -0.483  -0.480  -0.479  -0.479  -0.478  -0.476  -0.474
 -0.472  -0.471  -0.470  -0.469  -0.467  -0.466  -0.464  -0.463
 -0.463  -0.462  -0.462  -0.460  -0.459  -0.459  -0.458  -0.456
 -0.453  -0.453  -0.451  -0.451  -0.447  -0.446  -0.444  -0.443
 -0.442  -0.441  -0.438  -0.437  -0.437  -0.436  -0.433  -0.431
 -0.431  -0.428  -0.427  -0.427  -0.426  -0.423  -0.422  -0.421
 -0.420  -0.420  -0.419  -0.418  -0.417  -0.417  -0.416  -0.416
 -0.416  -0.415  -0.414  -0.413  -0.413  -0.412  -0.411  -0.410
 -0.408  -0.408  -0.407  -0.404  -0.401  -0.399  -0.396  -0.396
 -0.394  -0.394  -0.389  -0.387  -0.387  -0.387  -0.385  -0.382
 -0.379  -0.376  -0.374  -0.370  -0.368  -0.368  -0.367  -0.365
 -0.363  -0.362  -0.361  -0.360  -0.360  -0.359  -0.357  -0.356
 -0.356  -0.355  -0.354  -0.354  -0.353  -0.352  -0.351  -0.349
 -0.348  -0.348  -0.347  -0.346  -0.345  -0.345  -0.344  -0.343
 -0.341  -0.340  -0.339  -0.339  -0.337  -0.335  -0.334  -0.333
 -0.332  -0.330  -0.329  -0.328  -0.326  -0.325  -0.324  -0.320
 -0.310  -0.308  -0.304  -0.289  -0.288  -0.287  -0.277  -0.271
 -0.270  -0.269  -0.268  -0.265  -0.264  -0.263  -0.261  -0.261
 -0.260  -0.259  -0.257  -0.256  -0.255  -0.255  -0.252  -0.252
 -0.250  -0.248  -0.244  -0.241  -0.224  -0.221  -0.209  -0.208
 -0.207  -0.206  -0.204  -0.203  -0.198  -0.196
 -- Virtual --
 -0.125  -0.122  -0.120  -0.116  -0.108  -0.103  -0.078  -0.076
 -0.072  -0.069  -0.060  -0.058  -0.052  -0.051  -0.028  -0.021
 -0.019  -0.019  -0.018  -0.016  -0.015  -0.014  -0.014  -0.011
 -0.010  -0.009  -0.008  -0.007  -0.004  -0.002   0.003   0.004
  0.006   0.013   0.034   0.037   0.041   0.046   0.047   0.048
  0.048   0.051   0.054   0.057   0.060   0.063   0.067   0.069
  0.070   0.071   0.081   0.083   0.087   0.087   0.090   0.091
  0.094   0.097   0.099   0.100   0.101   0.105   0.107   0.108
  0.109   0.110   0.114   0.115   0.116   0.118   0.119   0.120
  0.122   0.124   0.125   0.126   0.127   0.130   0.134   0.135
  0.137   0.141   0.143   0.149   0.150   0.151   0.152   0.154
  0.155   0.157   0.160   0.163   0.165   0.166   0.168   0.170
  0.172   0.173   0.175   0.175   0.177   0.179   0.180   0.181
  0.182   0.184   0.185   0.186   0.188   0.189   0.190   0.191
  0.193   0.195   0.198   0.200   0.201   0.202   0.203   0.204
  0.207   0.209   0.211   0.212   0.216   0.217   0.220   0.220
  0.220   0.222   0.223   0.223   0.224   0.225   0.226   0.229
  0.230   0.232   0.234   0.234   0.235   0.237   0.238   0.240
  0.241   0.242   0.245   0.246   0.247   0.251   0.253   0.259
  0.262   0.264   0.268   0.271   0.273   0.275   0.278   0.280
  0.281   0.284   0.286   0.286   0.289   0.290   0.297   0.305
  0.307   0.308   0.310   0.313   0.314   0.315   0.316   0.320
  0.321   0.322   0.324   0.327   0.328   0.329   0.330   0.333
  0.334   0.335   0.336   0.342   0.344   0.347   0.349   0.350
  0.352   0.357   0.362   0.364   0.373   0.374   0.382   0.389
  0.396   0.398   0.400   0.401   0.404   0.405   0.407   0.409
  0.410   0.412   0.414   0.415   0.418   0.420   0.421   0.425
  0.427   0.428   0.435   0.438   0.439   0.443   0.444   0.445
  0.448   0.451   0.452   0.454   0.455   0.458   0.460   0.463
  0.465   0.467   0.469   0.469   0.470   0.472   0.473   0.476
  0.478   0.479   0.480   0.481   0.483   0.484   0.485   0.487
  0.488   0.488   0.490   0.492   0.493   0.494   0.496   0.496
  0.496   0.497   0.498   0.499   0.500   0.501   0.502   0.504
  0.504   0.506   0.507   0.509   0.510   0.511   0.511   0.513
  0.513   0.514   0.516   0.517   0.517   0.517   0.520   0.521
  0.521   0.522   0.523   0.523   0.524   0.524   0.526   0.527
  0.527   0.528   0.529   0.530   0.531   0.531   0.532   0.533
  0.534   0.534   0.535   0.536   0.537   0.538   0.538   0.539
  0.541   0.542   0.542   0.543   0.544   0.545   0.545   0.547
  0.547   0.548   0.549   0.550   0.551   0.551   0.551   0.552
  0.553   0.554   0.554   0.556   0.556   0.557   0.558   0.558
  0.559   0.559   0.560   0.561   0.561   0.563   0.564   0.564
  0.565   0.567   0.567   0.568   0.570   0.570   0.571   0.572
  0.574   0.574   0.575   0.575   0.576   0.578   0.578   0.579
  0.580   0.581   0.582   0.582   0.584   0.585   0.586   0.586
  0.587   0.588   0.588   0.589   0.590   0.591   0.592   0.592
  0.593   0.594   0.594   0.595   0.596   0.596   0.597   0.598
  0.599   0.600   0.602   0.604   0.604   0.605   0.606   0.607
  0.609   0.611   0.612   0.613   0.613   0.614   0.615   0.616
  0.616   0.617   0.618   0.620   0.621   0.623   0.623   0.624
  0.625   0.627   0.628   0.629   0.630   0.630   0.632   0.633
  0.634   0.635   0.635   0.636   0.637   0.638   0.639   0.640
  0.642   0.643   0.645   0.646   0.647   0.649   0.649   0.650
  0.651   0.653   0.653   0.654   0.655   0.656   0.656   0.657
  0.658   0.659   0.660   0.660   0.662   0.662   0.663   0.664
  0.665   0.666   0.667   0.667   0.668   0.669   0.670   0.671
  0.672   0.673   0.673   0.673   0.675   0.676   0.678   0.679
  0.680   0.682   0.683   0.685   0.685   0.687   0.688   0.689
  0.691   0.691   0.691   0.692   0.694   0.696   0.697   0.698
  0.699   0.700   0.701   0.702   0.703   0.704   0.704   0.707
  0.708   0.709   0.709   0.710   0.712   0.712   0.714   0.716
  0.718   0.718   0.719   0.721   0.721   0.722   0.723   0.726
  0.727   0.728   0.729   0.731   0.732   0.733   0.735   0.736
  0.737   0.737   0.739   0.740   0.742   0.744   0.745   0.746
  0.749   0.750   0.751   0.752   0.754   0.754   0.756   0.757
  0.758   0.762   0.762   0.764   0.766   0.767   0.768   0.769
  0.769   0.771   0.771   0.773   0.774   0.776   0.778   0.778
  0.780   0.781   0.782   0.783   0.785   0.785   0.786   0.787
  0.789   0.790   0.791   0.793   0.794   0.794   0.796   0.797
  0.797   0.798   0.802   0.802   0.803   0.805   0.806   0.806
  0.807   0.808   0.809   0.810   0.810   0.811   0.812   0.813
  0.813   0.814   0.815   0.815   0.816   0.817   0.817   0.818
  0.819   0.819   0.820   0.822   0.823   0.823   0.824   0.824
  0.825   0.826   0.827   0.830   0.830   0.831   0.833   0.834
  0.836   0.838   0.839   0.841   0.845   0.845   0.847   0.849
  0.853   0.854   0.855   0.857   0.861   0.862   0.865   0.866
  0.871   0.873   0.877   0.879   0.882   0.888   0.890   0.891
  0.892   0.896   0.898   0.901   0.902   0.906   0.909   0.911
  0.913   0.915   0.916   0.922   0.923   0.925   0.927   0.929
  0.931   0.933   0.935   0.936   0.937   0.938   0.940   0.940
  0.941   0.943   0.945   0.946   0.947   0.947   0.950   0.953
  0.957   0.958   0.960   0.962   0.964   0.966   0.967   0.970
  0.974   0.978   0.983   0.984   0.986   0.988   0.989   0.990
  0.993   0.995   0.998   1.000   1.000   1.002   1.005   1.007
  1.009   1.011   1.012   1.014   1.016   1.018   1.020   1.020
  1.022   1.023   1.025   1.027   1.028   1.029   1.031   1.033
  1.034   1.035   1.036   1.038   1.040   1.043   1.043   1.046
  1.047   1.048   1.049   1.050   1.052   1.055   1.058   1.058
  1.060   1.062   1.063   1.066   1.069   1.070   1.072   1.073
  1.075   1.076   1.077   1.078   1.080   1.082   1.083   1.084
  1.086   1.088   1.089   1.091   1.093   1.095   1.096   1.098
  1.100   1.102   1.105   1.108   1.109   1.112   1.113   1.116
  1.117   1.118   1.121   1.123   1.125   1.128   1.128   1.129
  1.131   1.135   1.136   1.137   1.141   1.143   1.145   1.146
  1.149   1.151   1.152   1.155   1.157   1.158   1.159   1.163
  1.163   1.164   1.165   1.167   1.168   1.171   1.171   1.175
  1.175   1.176   1.176   1.177   1.179   1.180   1.181   1.183
  1.185   1.190   1.191   1.193   1.194   1.196   1.198   1.199
  1.201   1.204   1.206   1.209   1.211   1.213   1.215   1.217
  1.224   1.227   1.230   1.234   1.236   1.238   1.242   1.244
  1.245   1.249   1.250   1.251   1.254   1.257   1.257   1.259
  1.262   1.264   1.267   1.269   1.270   1.270   1.274   1.277
  1.277   1.279   1.280   1.282   1.285   1.286   1.290   1.291
  1.296   1.298   1.300   1.302   1.304   1.304   1.306   1.310
  1.316   1.316   1.321   1.324   1.325   1.328   1.329   1.334
  1.335   1.337   1.339   1.340   1.341   1.343   1.345   1.348
  1.350   1.351   1.352   1.356   1.357   1.359   1.361   1.363
  1.366   1.368   1.372   1.374   1.376   1.377   1.378   1.381
  1.387   1.388   1.390   1.393   1.397   1.401   1.403   1.406
  1.409   1.413   1.415   1.420   1.422   1.423   1.423   1.425
  1.428   1.436   1.438   1.441   1.441   1.443   1.445   1.447
  1.448   1.453   1.455   1.458   1.459   1.461   1.463   1.466
  1.467   1.469   1.472   1.474   1.478   1.478   1.480   1.482
  1.485   1.486   1.487   1.489   1.490   1.493   1.495   1.498
  1.500   1.502   1.506   1.509   1.511   1.513   1.514   1.516
  1.519   1.521   1.527   1.532   1.534   1.536   1.537   1.540
  1.544   1.546   1.550   1.550   1.553   1.554   1.556   1.557
  1.558   1.561   1.563   1.564   1.566   1.568   1.568   1.573
  1.576   1.579   1.582   1.583   1.584   1.586   1.590   1.592
  1.595   1.596   1.598   1.607   1.608   1.614   1.617   1.618
  1.621   1.627   1.631   1.634   1.638   1.639   1.641   1.644
  1.648   1.650   1.653   1.655   1.658   1.660   1.667   1.671
  1.674   1.676   1.681   1.682   1.685   1.688   1.692   1.693
  1.699   1.702   1.702   1.705   1.710   1.711   1.713   1.715
  1.716   1.718   1.722   1.725   1.727   1.731   1.732   1.734
  1.735   1.735   1.738   1.739   1.740   1.740   1.741   1.744
  1.745   1.747   1.749   1.750   1.753   1.754   1.755   1.756
  1.758   1.761   1.763   1.765   1.766   1.766   1.768   1.770
  1.771   1.772   1.774   1.775   1.776   1.777   1.779   1.780
  1.780   1.781   1.782   1.783   1.784   1.785   1.787   1.789
  1.790   1.791   1.792   1.792   1.794   1.795   1.797   1.798
  1.799   1.799   1.802   1.803   1.805   1.806   1.807   1.810
  1.811   1.811   1.814   1.816   1.817   1.818   1.821   1.821
  1.826   1.827   1.829   1.830   1.833   1.836   1.840   1.840
  1.842   1.844   1.846   1.847   1.850   1.851   1.853   1.856
  1.857   1.858   1.860   1.864   1.865   1.867   1.869   1.870
  1.872   1.873   1.875   1.877   1.878   1.880   1.881   1.884
  1.885   1.887   1.890   1.890   1.891   1.895   1.896   1.898
  1.900   1.904   1.904   1.909   1.910   1.912   1.918   1.921
  1.923   1.925   1.926   1.928   1.934   1.935   1.936   1.937
  1.939   1.941   1.942   1.943   1.944   1.947   1.948   1.949
  1.951   1.953   1.955   1.956   1.960   1.961   1.963   1.964
  1.966   1.971   1.972   1.974   1.976   1.979   1.981   1.982
  1.983   1.984   1.986   1.988   1.991   1.991   1.995   1.996
  1.998   1.998   1.999   2.001   2.002   2.002   2.004   2.005
  2.006   2.006   2.008   2.010   2.010   2.013   2.015   2.016
  2.017   2.018   2.019   2.020   2.022   2.023   2.024   2.025
  2.026   2.027   2.028   2.028   2.030   2.030   2.032   2.033
  2.035   2.035   2.037   2.037   2.039   2.040   2.042   2.043
  2.046   2.046   2.048   2.049   2.050   2.051   2.051   2.052
  2.054   2.055   2.056   2.059   2.059   2.062   2.064   2.065
  2.066   2.067   2.069   2.069   2.071   2.074   2.074   2.076
  2.078   2.078   2.079   2.083   2.084   2.085   2.086   2.088
  2.090   2.091   2.094   2.095   2.098   2.099   2.104   2.106
  2.109   2.111   2.111   2.114   2.115   2.117   2.122   2.123
  2.128   2.131   2.134   2.136   2.138   2.138   2.145   2.146
  2.149   2.151   2.152   2.157   2.163   2.166   2.169   2.170
  2.180   2.181   2.185   2.191   2.192   2.196   2.199   2.203
  2.211   2.212   2.212   2.216   2.218   2.221   2.223   2.226
  2.230   2.232   2.234   2.237   2.240   2.241   2.242   2.244
  2.246   2.249   2.252   2.254   2.256   2.256   2.260   2.261
  2.267   2.269   2.273   2.275   2.277   2.278   2.282   2.284
  2.285   2.286   2.289   2.290   2.292   2.294   2.297   2.298
  2.299   2.303   2.304   2.305   2.306   2.310   2.312   2.314
  2.317   2.318   2.320   2.323   2.328   2.332   2.335   2.339
  2.340   2.341   2.344   2.345   2.347   2.350   2.352   2.353
  2.356   2.359   2.360   2.361   2.362   2.365   2.367   2.369
  2.370   2.372   2.374   2.375   2.376   2.379   2.381   2.383
  2.384   2.385   2.387   2.389   2.390   2.391   2.393   2.394
  2.396   2.397   2.397   2.400   2.402   2.402   2.404   2.407
  2.407   2.408   2.409   2.410   2.414   2.416   2.417   2.418
  2.422   2.424   2.426   2.431   2.433   2.436   2.443   2.444
  2.446   2.448   2.452   2.453   2.454   2.457   2.460   2.463
  2.463   2.465   2.466   2.469   2.471   2.473   2.474   2.479
  2.480   2.480   2.483   2.486   2.487   2.489   2.489   2.492
  2.493   2.493   2.495   2.498   2.499   2.501   2.504   2.505
  2.506   2.510   2.510   2.511   2.514   2.518   2.519   2.520
  2.521   2.524   2.527   2.529   2.532   2.534   2.536   2.538
  2.541   2.544   2.544   2.545   2.548   2.552   2.554   2.556
  2.560   2.568   2.569   2.570   2.574   2.577   2.579   2.583
  2.590   2.593   2.596   2.597   2.599   2.601   2.602   2.605
  2.609   2.609   2.611   2.612   2.614   2.615   2.615   2.617
  2.621   2.622   2.623   2.625   2.626   2.627   2.630   2.632
  2.633   2.635   2.638   2.640   2.643   2.643   2.644   2.646
  2.648   2.648   2.649   2.651   2.654   2.656   2.658   2.658
  2.660   2.661   2.664   2.666   2.667   2.667   2.669   2.671
  2.674   2.675   2.678   2.679   2.681   2.684   2.686   2.689
  2.690   2.694   2.696   2.698   2.699   2.701   2.704   2.705
  2.709   2.711   2.713   2.716   2.719   2.721   2.723   2.725
  2.727   2.728   2.731   2.732   2.735   2.737   2.739   2.741
  2.741   2.744   2.747   2.748   2.750   2.753   2.756   2.758
  2.760   2.760   2.763   2.765   2.769   2.770   2.771   2.774
  2.774   2.777   2.777   2.780   2.781   2.785   2.789   2.792
  2.796   2.801   2.804   2.809   2.811   2.813   2.816   2.821
  2.826   2.828   2.833   2.834   2.837   2.840   2.842   2.843
  2.845   2.846   2.847   2.851   2.852   2.856   2.857   2.859
  2.862   2.863   2.864   2.865   2.866   2.869   2.870   2.873
  2.877   2.879   2.881   2.882   2.885   2.885   2.888   2.890
  2.893   2.895   2.896   2.897   2.898   2.900   2.902   2.905
  2.905   2.907   2.909   2.911   2.914   2.915   2.917   2.918
  2.920   2.923   2.925   2.925   2.928   2.931   2.933   2.936
  2.937   2.938   2.940   2.943   2.947   2.948   2.952   2.954
  2.958   2.960   2.962   2.964   2.969   2.970   2.973   2.976
  2.977   2.982   2.985   2.988   2.990   2.995   2.997   3.002
  3.004   3.007   3.009   3.011   3.014   3.015   3.017   3.018
  3.020   3.022   3.026   3.027   3.029   3.031   3.033   3.039
  3.041   3.045   3.046   3.050   3.054   3.058   3.062   3.066
  3.068   3.072   3.076   3.077   3.082   3.087   3.095   3.106
  3.112   3.115   3.119   3.123   3.130   3.138   3.150   3.154
  3.155   3.157   3.169   3.170   3.172   3.176   3.178   3.183
  3.189   3.204   3.210   3.216   3.221   3.223   3.231   3.244
  3.247   3.250   3.255   3.256   3.263   3.268   3.276   3.282
  3.284   3.303   3.311   3.315   3.318   3.320   3.327   3.329
  3.329   3.335   3.337   3.341   3.343   3.357   3.372   3.379
  3.395   3.397   3.397   3.402   3.412   3.432   3.436   3.445
  3.449   3.450   3.458   3.463   3.478   3.479   3.486   3.490
  3.501   3.503   3.506   3.520   3.525   3.534   3.537   3.542
  3.544   3.547   3.564   3.566   3.569   3.573   3.580   3.603
  3.617   3.637   3.679   3.681   3.834   3.891   3.991   4.005
  4.066   4.073   4.080   4.081   4.088   4.094   4.094   4.097
  4.098   4.100   4.101   4.103   4.109   4.110   4.114   4.116
  4.118   4.122   4.134   4.139   4.143   4.145   4.148   4.151
  4.157   4.160   4.160   4.163   4.166   4.169   4.170   4.174
  4.183   4.184   4.192   4.202   4.203   4.216   4.236   4.242
  4.243   4.248   4.251   4.253   4.255   4.257   4.260   4.265
  4.270   4.272   4.274   4.280   4.285   4.290   4.292   4.298
  4.305   4.307   4.318   4.334   4.381   4.383   4.389   4.391
  4.394   4.401   4.402   4.403   4.406   4.410   4.413   4.415
  4.416   4.420   4.423   4.431   4.436   4.450   4.463   4.481
  4.482   4.491   4.498   4.503   4.531   4.533   4.546   4.549
  4.559   4.568   4.611   4.627   4.628   4.632   4.636   4.639
  4.642   4.646   4.660   4.667   4.689   4.691   4.695   4.698
  4.701   4.704   4.708   4.713   4.732   4.746   4.792   4.810
  4.833   4.854   4.858   4.866   4.875   4.876   4.884   4.891
  4.901   4.920   4.949   4.965   4.969   4.971   4.974   4.983
  4.989   4.991   4.994   4.998   5.159   5.163   5.176   5.179
  5.199   5.200   5.206   5.233   5.309   5.310   5.333   5.340
  5.357   5.380
 --------------------------------------------------------------
 
          Ground-State Mulliken Net Atomic Charges

     Atom                 Charge (a.u.)
  ----------------------------------------
      1 O                    -0.487200
      2 C                    -0.072972
      3 H                     0.123920
      4 H                     0.133758
      5 H                     0.122359
      6 O                    -0.469119
      7 C                     0.570388
      8 C                    -0.248362
      9 H                     0.135331
     10 H                     0.126621
     11 C                    -0.187876
     12 H                     0.124244
     13 H                     0.127162
     14 C                    -0.196947
     15 H                     0.109941
     16 H                     0.114143
     17 C                     0.012751
     18 C                     0.112521
     19 C                    -0.105103
     20 H                     0.086359
     21 C                    -0.094332
     22 H                     0.085133
     23 C                    -0.077419
     24 H                     0.094529
     25 C                    -0.092996
     26 H                     0.090879
     27 C                    -0.118449
     28 H                     0.088277
     29 C                    -0.001879
     30 C                    -0.009724
     31 C                    -0.005130
     32 C                     0.026713
     33 C                     0.007904
     34 C                    -0.005458
     35 C                    -0.022505
     36 C                    -0.009000
     37 C                     0.006081
     38 C                    -0.016613
     39 C                    -0.083401
     40 C                    -0.017519
     41 C                     0.022858
     42 C                    -0.001107
     43 C                    -0.007184
     44 C                     0.019133
     45 C                    -0.097202
     46 C                     0.019137
     47 C                    -0.002729
     48 C                     0.003780
     49 C                    -0.009853
     50 C                     0.040033
     51 C                     0.004807
     52 C                     0.009614
     53 C                     0.043535
     54 C                     0.008963
     55 C                     0.008084
     56 C                    -0.011355
     57 C                    -0.020659
     58 C                    -0.024127
     59 C                    -0.003342
     60 C                     0.053975
     61 C                    -0.012011
     62 C                    -0.005591
     63 C                     0.004287
     64 C                    -0.008296
     65 C                     0.004467
     66 C                    -0.010698
     67 C                    -0.022525
     68 C                    -0.010296
     69 C                    -0.001456
     70 C                     0.033007
     71 C                     0.001816
     72 C                    -0.017546
     73 C                     0.011608
     74 C                     0.020327
     75 C                     0.009434
     76 C                    -0.025090
     77 C                    -0.030122
     78 C                    -0.021175
     79 C                    -0.004935
     80 C                     0.030011
     81 C                     0.005180
     82 C                     0.013336
     83 C                    -0.004156
     84 C                    -0.002157
     85 C                     0.019410
     86 C                    -0.005087
     87 C                    -0.003226
     88 C                    -0.022123
     89 O                    -0.453692
     90 C                    -0.090934
     91 H                     0.127418
     92 H                     0.121120
     93 H                     0.130475
     94 O                    -0.467585
     95 C                     0.611096
     96 C                    -0.279394
     97 H                     0.131343
     98 H                     0.131409
     99 C                    -0.178398
    100 H                     0.111021
    101 H                     0.120451
    102 C                    -0.190972
    103 H                     0.120564
    104 H                     0.105350
    105 C                     0.004449
    106 C                     0.104743
    107 C                    -0.104406
    108 H                     0.092738
    109 C                    -0.094955
    110 H                     0.094203
    111 C                    -0.081738
    112 H                     0.094461
    113 C                    -0.093653
    114 H                     0.093745
    115 C                    -0.117059
    116 H                     0.090643
    117 C                     0.003886
    118 C                     0.000845
    119 C                     0.003055
    120 C                    -0.010417
    121 C                    -0.033201
    122 C                    -0.012204
    123 C                     0.011680
    124 C                    -0.003677
    125 C                    -0.001919
    126 C                    -0.018536
    127 C                    -0.079831
    128 C                    -0.008775
    129 C                    -0.033330
    130 C                     0.002073
    131 C                     0.025362
    132 C                     0.018600
    133 C                    -0.091579
    134 C                     0.031766
    135 C                    -0.019747
    136 C                     0.011819
    137 C                    -0.021967
    138 C                    -0.002780
    139 C                    -0.019748
    140 C                    -0.004525
    141 C                     0.029694
    142 C                     0.009977
    143 C                     0.046250
    144 C                     0.000596
    145 C                    -0.008113
    146 C                    -0.014613
    147 C                    -0.001405
    148 C                     0.052541
    149 C                     0.005792
    150 C                    -0.002197
    151 C                     0.011678
    152 C                    -0.021509
    153 C                    -0.022210
    154 C                    -0.029189
    155 C                    -0.018368
    156 C                    -0.005458
    157 C                     0.004338
    158 C                     0.034788
    159 C                     0.003237
    160 C                     0.016066
    161 C                     0.052715
    162 C                     0.007526
    163 C                     0.027820
    164 C                     0.007049
    165 C                     0.012920
    166 C                    -0.020509
    167 C                    -0.025067
    168 C                    -0.027016
    169 C                     0.031359
    170 C                     0.003789
    171 C                    -0.009068
    172 C                    -0.001606
    173 C                     0.005463
    174 C                     0.002419
    175 C                    -0.017657
    176 C                    -0.001084
  ----------------------------------------
  Sum of atomic charges =     0.000000

 -----------------------------------------------------------------
                    Cartesian Multipole Moments
 -----------------------------------------------------------------
    Charge (ESU x 10^10)
                 0.0000
    Dipole Moment (Debye)
         X      -4.4148      Y       3.3153      Z       0.1254
       Tot       5.5224
    Quadrupole Moments (Debye-Ang)
        XX    -757.2462     XY     -44.4036     YY    -816.8779
        XZ      -7.3146     YZ      -8.4462     ZZ    -790.0240
    Octopole Moments (Debye-Ang^2)
       XXX    -730.3007    XXY      64.5022    XYY    -123.1069
       YYY     274.9957    XXZ      72.5201    XYZ     -29.2266
       YYZ     112.9320    XZZ    -203.1012    YZZ      34.6967
       ZZZ      34.2248
    Hexadecapole Moments (Debye-Ang^3)
      XXXX -142082.8864   XXXY   -5186.0734   XXYY  -31112.9997
      XYYY   -2159.4050   YYYY  -49910.8108   XXXZ   -1707.7956
      XXYZ     744.9076   XYYZ    -453.1861   YYYZ    -644.1215
      XXZZ  -26844.9426   XYZZ   -1389.5816   YYZZ  -11028.2601
      XZZZ    -733.2254   YZZZ     167.0511   ZZZZ  -21498.0261
 -----------------------------------------------------------------
Archival summary:
1\1\mn366\SP\ProcedureUnspecified\6-31G**\428\afmv_a\SunOct708:10:182018SunOct708:10:182018\0\\#,ProcedureUnspecified,6-31G**,\\0,1\O\C,1,1.39476\O,2,1.22683,1,122.261\C,1,1.44995,2,121.762,3,10.6466,0\H,4,1.09655,1,106.551,2,170.391,0\H,4,1.09721,1,107.377,2,-61.3375,0\H,4,1.09763,1,107.005,2,64.0125,0\C,2,1.55025,1,112.524,3,-177.143,0\H,8,1.09661,2,98.6926,1,66.3674,0\H,8,1.09671,2,112.703,1,175.734,0\C,8,1.61333,2,114.944,1,-58.1698,0\H,11,1.09691,8,118.422,2,53.8974,0\H,11,1.09703,8,104.353,2,-71.3541,0\C,11,1.56586,8,105.581,2,-173.274,0\H,14,1.09639,11,107.989,8,54.0002,0\H,14,1.09726,11,105.077,8,-58.1375,0\C,14,1.55237,11,111.225,8,179.458,0\C,17,1.47523,14,111.462,11,-62.3922,0\C,18,1.36629,17,117.329,14,-85.8725,0\H,19,1.08656,18,116.78,17,8.9972,0\C,18,1.38304,17,125.431,14,102.525,0\H,21,1.08617,18,120.276,17,-4.99815,0\C,19,1.39532,18,121.211,17,-172.814,0\H,23,1.0866,19,118.232,18,172.489,0\C,23,1.38414,19,122.319,18,6.57312,0\H,25,1.08622,23,119.006,19,179.72,0\C,25,1.39174,23,116.261,19,-8.94883,0\H,27,1.08611,25,118.831,23,178.525,0\C,17,1.51536,14,118.061,11,78.7268,0\C,29,1.46722,17,130.201,14,-149.084,0\C,30,1.40467,29,121.532,17,-65.3832,0\C,31,1.3738,30,123.794,29,-4.45054,0\C,31,1.39546,30,119.642,29,-149.23,0\C,33,1.39542,31,121.595,30,2.56655,0\C,34,1.38174,33,119.059,31,0.961026,0\C,32,1.40333,31,107.291,30,-146.032,0\C,36,1.40718,32,109.952,31,-3.39791,0\C,35,1.40792,34,108.656,33,144.003,0\C,38,1.37388,35,108.252,34,0.300374,0\C,38,1.38727,35,119.155,34,-143.28,0\C,39,1.39785,38,108.313,35,-0.379796,0\C,30,1.40904,29,109.615,17,149.426,0\C,42,1.39174,30,111.012,29,4.25642,0\C,43,1.3899,42,118.894,30,144.179,0\C,44,1.39604,43,120.64,42,-133.408,0\C,45,1.38743,44,108.503,43,141.309,0\C,46,1.38667,45,108.979,44,-0.221324,0\C,45,1.38937,44,121.047,43,-1.0936,0\C,46,1.39482,45,122.122,44,-145.387,0\C,49,1.38049,46,119.567,45,-1.30448,0\C,50,1.39873,49,105.971,46,136.458,0\C,43,1.40076,42,107.75,30,2.45416,0\C,47,1.41981,46,121.937,45,-144.88,0\C,53,1.37646,47,121.988,46,140.137,0\C,54,1.38868,53,107.341,47,-139.244,0\C,55,1.36602,54,120.696,53,141.142,0\C,56,1.37282,55,121.093,54,-1.59651,0\C,55,1.38684,54,108.261,53,-5.35839,0\C,58,1.36774,55,107.785,54,5.06552,0\C,59,1.38386,58,122.302,55,144.265,0\C,60,1.39305,59,117.711,58,-7.07487,0\C,57,1.39669,56,110.504,55,-143.231,0\C,62,1.37763,57,108.256,56,-1.80012,0\C,63,1.38025,62,106.734,57,1.52882,0\C,64,1.40742,63,123.451,62,137.348,0\C,48,1.42112,45,119.489,44,1.97064,0\C,50,1.42233,49,120.891,46,5.51044,0\C,32,1.4257,31,118.534,30,-3.12753,0\C,61,1.42766,60,121.635,59,7.54886,0\C,69,1.37996,61,118.461,60,-1.91973,0\C,69,1.40591,61,118.687,60,-141.707,0\C,71,1.37189,69,107.94,61,139.436,0\C,72,1.403,71,124.021,69,-142.255,0\C,71,1.40814,69,120.2,61,-0.587631,0\C,74,1.37096,71,120.812,69,2.50179,0\C,74,1.384,71,119.134,69,135.057,0\C,73,1.41207,72,118.846,71,0.897661,0\C,77,1.4059,73,112.726,72,142.627,0\C,78,1.38735,77,123.103,73,-138.818,0\C,75,1.41399,74,114.045,71,145.37,0\C,80,1.30593,75,121.253,74,-145.304,0\C,76,1.42321,74,109.568,71,-145.074,0\C,73,1.42738,72,122.434,71,133.22,0\C,81,1.42785,80,120.44,75,136.569,0\C,78,1.42972,77,106.06,73,-0.642086,0\C,79,1.43437,78,120.266,77,-6.07963,0\C,86,1.39172,79,109.548,78,145.585,0\C,68,1.48331,32,121.375,31,7.57308,0\C,9,2.72355,8,173.691,2,42.8592,0\C,89,1.3794,9,82.5096,8,-157.12,0\C,89,1.40248,9,89.9013,8,-37.5719,0\C,91,1.39732,89,121.187,9,143.063,0\C,92,1.41043,91,108.877,89,141.523,0\C,93,1.37858,92,109.999,91,-0.259563,0\C,94,1.38908,93,106.624,92,-3.23195,0\C,95,1.39048,94,121.747,93,-146.276,0\C,96,1.37381,95,119.04,94,8.02202,0\C,97,1.38185,96,122.031,95,-5.95207,0\C,96,1.39205,95,115.25,94,141.206,0\C,97,1.39854,96,108.592,95,139.186,0\C,93,1.40109,92,120.506,91,-142.796,0\C,101,1.3968,93,123.871,92,140.555,0\C,102,1.40191,101,109.255,93,-143.089,0\C,98,1.40889,97,121.783,96,137.445,0\C,104,1.39188,98,109.712,97,-138.382,0\C,105,1.38056,104,121.11,98,144.09,0\C,106,1.3606,105,120.26,104,-140.191,0\C,106,1.38262,105,120.956,104,-2.05207,0\C,105,1.3988,104,108.641,98,-5.26255,0\C,108,1.4062,106,109.872,105,-142.645,0\C,110,1.39335,108,106.142,106,0.473405,0\C,111,1.40629,110,120.623,108,143.042,0\C,104,1.40981,98,120.403,97,0.961735,0\C,113,1.3908,104,125.373,98,-140.43,0\C,114,1.37606,113,108.346,104,142.371,0\C,115,1.37937,114,106.834,113,-1.50535,0\C,116,1.38606,115,120.137,114,-150.624,0\C,117,1.37577,116,118.961,115,12.3216,0\C,116,1.3861,115,110.646,114,8.26534,0\C,92,1.4117,91,118.287,89,-2.28469,0\C,120,1.35844,92,117.429,91,141.297,0\C,118,1.41207,117,107.655,116,134.15,0\C,122,1.39995,118,120.47,117,-145.684,0\C,123,1.39116,122,119.55,118,1.97522,0\C,124,1.38498,123,122.313,122,-2.07282,0\C,125,1.40825,124,118.236,123,2.12528,0\C,126,1.36007,125,109.058,124,140.941,0\C,127,1.40206,126,108.384,125,-2.63055,0\C,112,1.4151,111,119.492,110,-134.811,0\C,129,1.39334,112,108.307,111,137.904,0\C,130,1.36297,129,109.933,112,7.02416,0\C,130,1.41103,129,120.232,112,-149.424,0\C,132,1.41752,130,119.307,129,146.125,0\C,133,1.3853,132,105.552,130,-140.924,0\C,134,1.38553,133,122.442,132,139.668,0\C,135,1.39745,134,115.221,133,-0.849443,0\C,136,1.39942,135,105.277,134,-140.453,0\C,137,1.39341,136,123.894,135,144.331,0\C,133,1.41781,132,117.949,130,1.71362,0\C,139,1.37123,133,115.289,132,-132.169,0\C,100,1.41929,97,107.667,96,-3.72885,0\C,141,1.36067,100,122.36,97,-145.039,0\C,121,1.4198,120,124.042,92,0.470183,0\C,143,1.40729,121,120.2,120,-135.198,0\C,131,1.42389,130,115.476,129,-144.693,0\C,94,1.42676,93,120.839,92,-142.977,0\C,125,1.46466,124,119.001,123,143.692,0\C,147,1.45076,125,119.672,124,-5.12309,0\C,148,1.51712,147,63.1509,125,118.836,0\C,149,1.46385,148,119.637,147,-101.188,0\C,150,1.40427,149,115.288,148,-65.0715,0\H,151,1.08607,150,114.512,149,-0.942042,0\C,150,1.42477,149,127.173,148,111.538,0\H,153,1.08581,150,118.925,149,1.7173,0\C,153,1.38651,150,121.638,149,-179.715,0\H,155,1.08599,153,121.944,150,177.29,0\C,155,1.42029,153,121.424,150,3.44589,0\H,157,1.08597,155,125.256,153,175.79,0\C,157,1.39477,155,119.271,153,2.29586,0\H,159,1.08662,157,120.826,155,-178.354,0\C,149,1.57274,148,117.837,147,109.472,0\H,161,1.09707,149,112.844,148,-21.2425,0\H,161,1.09777,149,115.7,148,89.4067,0\C,161,1.59848,149,110.525,148,-145.764,0\H,164,1.09684,161,104.842,149,-67.4598,0\H,164,1.09705,161,108.634,149,46.0431,0\C,164,1.59422,161,116.853,149,169.886,0\H,167,1.0972,164,110.131,161,145.223,0\H,167,1.09721,164,114.115,161,31.9292,0\C,167,1.52282,164,115.168,161,-90.7386,0\O,170,1.21927,167,120.995,164,19.2989,0\O,170,1.36083,167,110.759,164,-155.634,0\C,172,1.42118,170,116.157,167,-178.55,0\H,173,1.09673,172,110.184,170,-176.025,0\H,173,1.09724,172,112.35,170,-61.9449,0\H,173,1.09736,172,113.065,170,65.1333,0\\\@

 Total job time:  860.17s(wall), 7329.19s(cpu) 
 Sun Oct  7 08:10:18 2018

        *************************************************************
        *                                                           *
        *  Thank you very much for using Q-Chem.  Have a nice day.  *
        *                                                           *
        *************************************************************


