
Running Job 1 of 1 ./8/24.qcin
qchem ./8/24.qcin_8893.0 /tmpu/cab_g/afmv_a/scratch_qchem/qchem8893/ 1
/tmpu/appuserlic/qchem4.4/serial-multicore/exe/qcprog.exe_s ./8/24.qcin_8893.0 /tmpu/cab_g/afmv_a/scratch_qchem/qchem8893/
Check license passed

                  Welcome to Q-Chem
     A Quantum Leap Into The Future Of Chemistry


 Q-Chem 4.4, Q-Chem, Inc., Pleasanton, CA (2016)

 Y. Shao,  Z. Gan,  E. Epifanovsky,  A. T. B. Gilbert,  M. Wormit,  
 J. Kussmann,  A. W. Lange,  A. Behn,  J. Deng,  X. Feng,  D. Ghosh,  
 M. Goldey,  P. R. Horn,  L. D. Jacobson,  I. Kaliman,  F. Rob,  
 R. Z. Khaliullin,  T. Kus,  A. Landau,  J. Liu,  E. I. Proynov,  Y. M. Rhee,  
 R. M. Richard,  M. A. Rohrdanz,  R. P. Steele,  E. J. Sundstrom,  
 H. L. Woodcock III,  P. M. Zimmerman,  D. Zuev,  B. Albrecht,  E. Alguire,  
 B. Austin,  S. A. Baeppler,  G. J. O. Beran,  Y. A. Bernard,  E. Berquist,  
 K. Brandhorst,  K. B. Bravaya,  S. T. Brown,  D. Casanova,  C.-M. Chang,  
 Y. Chen,  S. H. Chien,  K. D. Closser,  M. P. Coons,  D. L. Crittenden,  
 S. Dasgupta,  M. Diedenhofen,  R. A. DiStasio Jr.,  H. Do,  A. D. Dutoi,  
 R. G. Edgar,  P.-T. Fang,  S. Fatehi,  Q. Feng,  L. Fusti-Molnar,  
 A. Ghysels,  A. Golubeva-Zadorozhnaya,  J. Gomes,  A. Gunina,  
 M. W. D. Hanson-Heine,  P. H. P. Harbach,  A. W. Hauser,  J. E. Herr,  
 E. G. Hohenstein,  Z. C. Holden,  K. Hui,  T.-C. Jagau,  H. Ji,  B. Kaduk,  
 K. Khistyaev,  Jaehoon Kim,  Jihan Kim,  R. A. King,  P. Klunzinger,  
 K. Koh,  D. Kosenkov,  T. Kowalczyk,  C. M. Krauter,  A. Kunitsa,  
 K. U. Lao,  A. Laurent,  K. V. Lawler,  J. Lee,  D. Lefrancois,  S. Lehtola,  
 S. V. Levchenko,  C. Y. Lin,  Y.-S. Lin,  F. Liu,  E. Livshits,  
 R. C. Lochan,  A. Luenser,  P. Manohar,  S. F. Manzer,  S.-P. Mao,  Y. Mao,  
 N. Mardirossian,  A. V. Marenich,  L. A. Martinez-Martinez,  S. A. Maurer,  
 N. J. Mayhall,  J.-M. Mewes,  A. F. Morrison,  K. Nanda,  T. S. Nguyen-Beck,  
 C. M. Oana,  R. Olivares-Amaya,  D. P. O'Neill,  J. A. Parkhill,  
 T. M. Perrine,  R. Peverati,  P. A. Pieniazek,  F. Plasser,  A. Prociuk,  
 D. R. Rehn,  E. Rosta,  N. J. Russ,  N. Sergueev,  S. M. Sharada,  
 S. Sharma,  D. W. Small,  A. Sodt,  T. Stauch,  T. Stein,  D. Stuck,  
 Y.-C. Su,  A. J. W. Thom,  T. Tsuchimochi,  L. Vogt,  O. Vydrov,  T. Wang,  
 M. A. Watson,  J. Wenzel,  A. White,  C. F. Williams,  V. Vanovschi,  
 K. Yao,  S. Yeganeh,  S. R. Yost,  Z.-Q. You,  I. Y. Zhang,  X. Zhang,  
 Y. Zhao,  B. R. Brooks,  G. K. L. Chan,  D. M. Chipman,  C. J. Cramer,  
 W. A. Goddard III,  M. S. Gordon,  W. J. Hehre,  A. Klamt,  
 H. F. Schaefer III,  M. W. Schmidt,  C. D. Sherrill,  D. G. Truhlar,  
 A. Warshel,  X. Xu,  A. Aspuru-Guzik,  R. Baer,  A. T. Bell,  N. A. Besley,  
 J.-D. Chai,  A. Dreuw,  B. D. Dunietz,  T. R. Furlani,  S. R. Gwaltney,  
 C.-P. Hsu,  Y. Jung,  J. Kong,  D. S. Lambrecht,  W. Liang,  C. Ochsenfeld,  
 V. A. Rassolov,  L. V. Slipchenko,  J. E. Subotnik,  T. Van Voorhis,  
 J. M. Herbert,  A. I. Krylov,  P. M. W. Gill,  M. Head-Gordon

 Contributors to earlier versions of Q-Chem not listed above: 
 R. D. Adamson,  J. Baker,  E. F. C. Byrd,  A. K. Chakraborty,  C.-L. Cheng,  
 H. Dachsel,  R. J. Doerksen,  G. Hawkins,  A. Heyden,  S. Hirata,  
 G. Kedziora,  F. J. Keil,  C. Kelley,  P. P. Korambath,  W. Kurlancheek,  
 A. M. Lee,  M. S. Lee,  D. Liotard,  I. Lotan,  P. E. Maslen,  N. Nair,  
 D. Neuhauser,  R. Olson,  B. Peters,  J. Ritchie,  N. E. Schultz,  
 N. Shenvi,  A. C. Simmonett,  K. S. Thanthiriwatte,  Q. Wu,  W. Zhang

 Please cite Q-Chem as follows:
 Y. Shao et al., Mol. Phys. 113, 184-215 (2015)
 DOI: 10.1080/00268976.2014.952696

 Q-Chem 4.4.2 for Intel X86 Linux

 Parts of Q-Chem use Armadillo 5.200.1 (Boston Tea Smuggler).
 http://arma.sourceforge.net/

 Q-Chem begins on Sun Oct  7 08:53:28 2018  

Host: 
0

     Scratch files written to /tmpu/cab_g/afmv_a/scratch_qchem/qchem8893//
 Dec716 11556_ 22328  22283 4050   
Processing $rem in /tmpu/appuserlic/qchem4.4/serial-multicore/config/preferences.
 MEM_TOTAL  2000 
FILE_GEOM_ORG=        593

Checking the input file for inconsistencies... 	...done.

--------------------------------------------------------------
User input:
--------------------------------------------------------------
$comment
SP
$end

$rem
MEM_STATIC 5000
MEM_TOTAL 20000
JOBTYPE SP
EXCHANGE B3LYP
BASIS 6-31g(d,p)
$end

$molecule
0 1
O          12.834000     -9.809000     -5.643000
C          11.404000     -9.637000     -5.724000
H          11.113000     -9.309000     -6.729000
H          10.967000     -8.904000     -5.035000
H          10.900000    -10.594000     -5.541000
O          13.384000     -7.572000     -5.674000
C          13.721000     -8.748000     -5.631000
C          15.102000     -9.272000     -5.719000
H          15.029000    -10.190000     -6.315000
H          15.439000     -9.681000     -4.759000
C          16.084000     -8.202000     -6.269000
H          15.767000     -7.852000     -7.259000
H          15.998000     -7.331000     -5.608000
C          17.561000     -8.722000     -6.498000
H          17.533000     -9.581000     -7.179000
H          18.078000     -7.918000     -7.037000
C          18.425000     -8.901000     -5.220000
C          18.548000     -7.586000     -4.575000
C          17.703000     -7.289000     -3.482000
H          16.928000     -7.999000     -3.210000
C          17.877000     -6.059000     -2.838000
H          17.229000     -5.756000     -2.021000
C          18.871000     -5.130000     -3.299000
H          19.032000     -4.137000     -2.889000
C          19.654000     -5.460000     -4.405000
H          20.349000     -4.697000     -4.742000
C          19.486000     -6.672000     -5.018000
H          20.208000     -6.906000     -5.795000
C          23.162000    -10.718000     -3.158000
C          21.627000    -10.968000     -1.305000
C          21.396000    -15.493000     -1.472000
C          21.314000    -13.023000     -7.290000
C          18.286000    -15.647000     -3.113000
C          22.079000    -10.306000     -2.415000
C          19.819000    -15.232000     -6.412000
C          23.361000    -13.998000     -1.736000
C          17.881000    -11.592000     -2.535000
C          19.949000    -12.972000     -7.147000
C          18.387000    -10.272000     -4.489000
C          17.383000    -12.240000     -3.651000
C          18.096000    -13.584000     -5.991000
C          19.411000    -16.021000     -5.308000
C          19.795000    -10.128000     -2.320000
C          20.563000    -16.552000     -3.271000
C          19.611000     -9.863000     -5.166000
C          20.004000    -10.692000     -6.244000
C          19.437000    -16.129000     -2.502000
C          23.562000    -14.615000     -5.157000
C          22.820000    -15.822000     -3.356000
C          23.652000    -14.748000     -2.876000
C          23.403000    -12.602000     -1.693000
C          21.465000    -10.824000     -6.312000
C          18.561000    -10.435000     -2.969000
C          22.280000    -12.159000     -0.940000
C          19.200000    -14.031000     -6.672000
C          20.248000    -10.896000     -1.273000
C          17.299000    -13.623000     -3.682000
C          23.294000    -12.410000     -6.201000
C          22.200000    -14.397000     -0.995000
C          17.705000    -11.498000     -4.830000
C          24.227000    -12.576000     -3.959000
C          17.686000    -14.307000     -4.834000
C          18.271000    -12.326000     -1.448000
C          21.666000    -16.130000     -5.437000
C          21.225000    -15.317000     -6.511000
C          18.244000    -13.761000     -1.471000
C          22.094000    -11.938000     -6.833000
C          19.270000    -11.800000     -6.691000
C          23.201000    -13.842000     -6.277000
C          20.923000     -9.597000     -4.418000
C          20.137000    -13.217000     -0.506000
C          18.090000    -12.178000     -6.012000
C          17.688000    -14.438000     -2.609000
C          23.808000    -11.810000     -5.052000
C          20.019000    -15.406000     -1.424000
C          23.885000    -11.875000     -2.799000
C          21.710000    -16.216000     -2.586000
C          19.503000    -12.036000     -0.847000
C          19.375000    -14.307000     -0.886000
C          20.915000     -9.664000     -3.040000
C          21.999000    -10.141000     -5.180000
C          22.866000    -15.769000     -4.729000
C          21.571000    -13.223000     -0.638000
C          18.319000    -15.495000     -4.526000
C          22.010000    -14.213000     -6.958000
C          20.518000    -16.537000     -4.676000
C          23.084000    -10.666000     -4.556000
C          24.050000    -13.995000     -4.014000
O          30.286000    -11.181000      8.777000
C          31.169000    -10.457000      9.693000
H          32.075000    -10.091000      9.194000
H          31.464000    -11.073000     10.552000
H          30.541000     -9.645000     10.081000
O          28.899000    -11.948000     10.337000
C          29.272000    -11.941000      9.192000
C          28.426000    -12.629000      8.017000
H          27.654000    -13.298000      8.416000
H          29.065000    -13.281000      7.409000
C          27.766000    -11.594000      7.074000
H          27.038000    -10.946000      7.578000
H          28.542000    -10.885000      6.759000
C          27.062000    -12.199000      5.879000
H          27.793000    -12.602000      5.167000
H          26.550000    -13.106000      6.223000
C          25.983000    -11.359000      5.108000
C          26.695000    -10.483000      4.071000
C          26.911000    -10.955000      2.800000
H          26.654000    -11.984000      2.567000
C          27.546000    -10.175000      1.796000
H          27.710000    -10.682000      0.849000
C          27.796000     -8.779000      2.118000
H          28.227000     -8.146000      1.348000
C          27.484000     -8.326000      3.380000
H          27.618000     -7.293000      3.688000
C          26.878000     -9.129000      4.364000
H          26.624000     -8.640000      5.300000
C          21.428000     -8.375000      6.224000
C          20.999000     -9.205000      3.951000
C          17.793000    -12.262000      4.927000
C          22.405000    -12.364000      9.178000
C          19.867000    -15.024000      4.852000
C          21.893000     -8.743000      4.929000
C          21.121000    -14.638000      8.300000
C          18.206000     -9.954000      5.847000
C          22.934000    -12.704000      3.209000
C          23.114000    -13.352000      8.497000
C          24.600000    -11.956000      4.764000
C          23.213000    -13.736000      4.054000
C          22.871000    -14.724000      6.664000
C          20.185000    -15.035000      7.305000
C          22.991000    -10.243000      3.682000
C          18.164000    -14.031000      6.311000
C          24.746000    -11.054000      5.978000
C          24.400000    -11.563000      7.369000
C          18.668000    -14.337000      5.001000
C          19.179000    -11.104000      8.989000
C          17.809000    -11.823000      7.307000
C          18.039000    -10.430000      7.147000
C          19.142000     -8.998000      5.527000
C          23.616000    -10.635000      8.026000
C          23.682000    -11.545000      3.625000
C          19.642000     -9.383000      4.224000
C          22.417000    -14.470000      7.953000
C          21.703000    -10.147000      3.179000
C          22.148000    -14.678000      4.379000
C          21.517000    -10.257000      9.298000
C          18.141000    -10.888000      4.747000
C          24.090000    -13.325000      5.037000
C          19.944000     -9.031000      7.824000
C          21.986000    -15.171000      5.669000
C          21.630000    -12.576000      2.723000
C          19.148000    -13.472000      8.470000
C          20.393000    -13.655000      9.033000
C          20.623000    -13.499000      3.069000
C          22.693000    -11.040000      8.987000
C          24.064000    -12.943000      7.516000
C          20.481000    -11.291000      9.577000
C          23.867000     -9.808000      5.943000
C          19.700000    -11.457000      3.009000
C          23.840000    -13.727000      6.378000
C          20.885000    -14.571000      3.893000
C          21.231000     -9.161000      8.376000
C          18.419000    -13.253000      4.216000
C          20.034000     -8.515000      6.494000
C          17.602000    -12.709000      6.233000
C          21.087000    -11.326000      2.694000
C          19.410000    -12.836000      3.208000
C          23.087000     -9.419000      4.792000
C          23.341000     -9.505000      7.177000
C          18.529000    -12.234000      8.405000
C          19.063000    -10.538000      3.798000
C          20.602000    -15.412000      5.987000
C          21.073000    -12.576000      9.539000
C          18.937000    -14.387000      7.434000
C          22.134000     -8.775000      7.343000
C          18.935000     -9.992000      8.124000
$end

--------------------------------------------------------------
 ----------------------------------------------------------------
             Standard Nuclear Orientation (Angstroms)
    I     Atom           X                Y                Z
 ----------------------------------------------------------------
    1      O       9.2120906276     5.6999815014     0.5231461671
    2      C       9.8049244338     7.0053169447     0.3628574943
    3      H      10.8500339832     6.9957585541     0.6944365452
    4      H       9.3263084882     7.8230855098     0.9152707006
    5      H       9.8077545777     7.2885745320    -0.6969118813
    6      O       9.0619931931     5.7445537685     2.8216487390
    7      C       8.8901482320     5.1650781280     1.7571905241
    8      C       8.4695564050     3.7576986201     1.5786787992
    9      H       9.0437909804     3.3875151549     0.7204900935
   10      H       7.4491220077     3.6899045404     1.1829925553
   11      C       8.6375702852     2.9416585787     2.8892412688
   12      H       9.6782589372     2.9662827222     3.2348563456
   13      H       8.0596581004     3.4666762036     3.6595217373
   14      C       8.3138884775     1.3990059452     2.7484473068
   15      H       8.9516771621     0.9728666294     1.9648294935
   16      H       8.6370645903     0.9410943917     3.6918985294
   17      C       6.8087774881     1.0238673171     2.6727312641
   18      C       6.1742470233     1.4641134167     3.9233045171
   19      C       5.4622327509     2.6847341110     3.9252530260
   20      H       5.4819466256     3.3049705264     3.0343954885
   21      C       4.8095030516     3.0575932170     5.1054360739
   22      H       4.2838921469     4.0047680515     5.1815610363
   23      C       4.8889621663     2.2272019531     6.2749379328
   24      H       4.4571070433     2.4710416367     7.2414333345
   25      C       5.6351783207     1.0498548637     6.2276063170
   26      H       5.7054011675     0.4920934094     7.1564410235
   27      C       6.2569878275     0.6869182285     5.0637476760
   28      H       6.7191989324    -0.2959893660     5.0684969076
   29      C       3.1612994581    -2.9774577908     1.8494430998
   30      C       1.9846221463    -1.0015730313     1.0986808731
   31      C       2.1845025568    -1.9685571859    -3.3264591774
   32      C       7.6615840169    -3.3301438768    -0.4796349183
   33      C       4.8354090920     0.2250209145    -4.0678137879
   34      C       2.8625523532    -1.6365681474     1.9357398641
   35      C       7.3628371404    -2.2166667284    -3.0402030084
   36      C       1.7348944353    -3.4668498244    -1.3980096171
   37      C       4.4775468289     1.7948206534    -0.2798331411
   38      C       8.0210125579    -2.0346259885    -0.7602049187
   39      C       6.1288481858     0.9767668717     1.2759765641
   40      C       5.6923909774     1.6922708862    -0.9332864602
   41      C       7.6059536740    -0.1059500513    -1.8793225408
   42      C       6.4735320299    -1.6548616261    -3.9895777749
   43      C       3.5993303917     0.5033222042     1.5677827944
   44      C       4.1536156319    -2.1101367310    -4.4008519965
   45      C       6.3222932352    -0.2656076249     2.0127741097
   46      C       7.1787461774    -1.2040885132     1.3886619563
   47      C       3.8462251831    -0.7185608236    -4.3160368688
   48      C       4.8476178787    -5.0032904019    -1.6712020706
   49      C       3.4251145086    -3.9980129239    -3.1601330139
   50      C       2.6866467525    -4.3155166549    -1.9643250218
   51      C       1.6917326218    -3.1450946410    -0.0389512446
   52      C       6.7140407900    -2.5799257340     1.6070420025
   53      C       4.6470589813     1.3137537379     1.0351745596
   54      C       1.3983555715    -1.7569161185     0.0672433694
   55      C       7.8389991480    -1.4526466971    -1.9996718295
   56      C       2.4528056190     0.2727492563     0.8442089824
   57      C       5.7396230572     1.4158709298    -2.2905182733
   58      C       5.9370616209    -4.5840399871     0.4877621306
   59      C       1.4591228566    -2.2564001105    -2.1156199059
   60      C       6.6822572957     1.1701611420    -0.0434240624
   61      C       3.5081081565    -4.6793901379     0.3624528468
   62      C       6.6685115853     0.4925834650    -2.7695123858
   63      C       3.3167349221     1.6435935018    -0.9884028735
   64      C       5.7795217270    -3.7634852983    -3.5587612147
   65      C       6.9472891976    -3.5421335513    -2.7865899003
   66      C       3.3354956165     1.3056973829    -2.3833785898
   67      C       6.9634186654    -3.6060596588     0.7165714282
   68      C       7.8507937299    -0.9718743840     0.1800852374
   69      C       6.0290844783    -4.8802264655    -0.9153965787
   70      C       5.1537434328    -1.1217935834     2.5158058818
   71      C       1.7574040336     0.0697438076    -1.4930664449
   72      C       7.6398811254     0.2391206989    -0.5165723416
   73      C       4.5915272722     1.2406324200    -3.0766750853
   74      C       4.6852533573    -4.4961855274     1.0957544539
   75      C       2.6371722793    -0.6867138976    -3.5672285827
   76      C       2.5556742644    -3.7897313995     0.8677666209
   77      C       3.1039439537    -2.8221896500    -3.8633578026
   78      C       2.3143473016     0.8138978587    -0.4688365174
   79      C       2.3772200620     0.3552396401    -2.6961725169
   80      C       3.8708681471    -0.6466765566     2.3371111362
   81      C       5.4715923394    -2.4956220706     2.3015085169
   82      C       4.6894987513    -4.5091435393    -2.9865473559
   83      C       1.3632179345    -1.2731102128    -1.1536899589
   84      C       6.1426455711    -0.2639963152    -3.7980788501
   85      C       7.0905932150    -4.1356721561    -1.4973940722
   86      C       5.4803389280    -2.5597188739    -4.2827156664
   87      C       4.4937178069    -3.3856460732     1.9951677368
   88      C       3.6109568755    -4.8891295148    -1.0494064007
   89      O     -10.5434142642    -5.3293454332     2.0931977081
   90      C     -11.7099410185    -5.6260191494     2.9263369747
   91      H     -11.5681762746    -6.5292630983     3.5328401703
   92      H     -12.6228220958    -5.7424839986     2.3284690314
   93      H     -11.8382539269    -4.7220847708     3.5351969230
   94      O     -11.5046888825    -3.7177226129     0.8997652663
   95      C     -10.5712941052    -4.4553510310     1.0865311797
   96      C      -9.1762471614    -4.2742546894     0.3179395197
   97      H      -9.2757057964    -3.6019613239    -0.5428017949
   98      H      -8.8453349156    -5.2259707375    -0.1154455855
   99      C      -8.0497398193    -3.7542882360     1.2435150680
  100      H      -8.2515897080    -2.7597490691     1.6607110268
  101      H      -8.0297194519    -4.3907909846     2.1371287631
  102      C      -6.6865404574    -3.6879690320     0.5900969302
  103      H      -6.2896611300    -4.6978668835     0.4279022044
  104      H      -6.8305470043    -3.3285470104    -0.4361617725
  105      C      -5.5710034513    -2.7772908717     1.2150165061
  106      C      -4.8530844194    -3.5685949195     2.3141612498
  107      C      -3.7496957200    -4.3269685728     2.0103787949
  108      H      -3.4486028869    -4.4307778648     0.9722334598
  109      C      -3.0356115057    -5.0608321446     2.9958578626
  110      H      -2.2159455694    -5.6669854317     2.6197196628
  111      C      -3.4140058811    -4.8288294560     4.3807739067
  112      H      -2.8458504202    -5.3324929796     5.1572225059
  113      C      -4.4745382303    -3.9916168857     4.6444844460
  114      H      -4.8011785428    -3.7493796230     5.6517263309
  115      C      -5.1806290968    -3.2966495408     3.6451061004
  116      H      -5.9577289339    -2.6175318843     3.9837032827
  117      C      -4.9430010172     2.4649356672     2.9535247337
  118      C      -2.6755547703     1.8484153613     2.2337607239
  119      C      -2.4558887450     4.3321500015    -1.5555756394
  120      C      -8.0849784188     1.6365427523    -0.9239111699
  121      C      -3.1579535342     1.7511364602    -3.7421755415
  122      C      -3.9061422751     1.4989360003     2.8105471397
  123      C      -6.8226766196     1.9261193293    -3.3556503775
  124      C      -3.4428978887     4.8522840927     0.7025444808
  125      C      -2.7117935567    -1.0234651054    -0.6452633008
  126      C      -7.7141424605     0.5130176443    -1.6606323002
  127      C      -4.7564982206    -1.7966629929     0.3418703601
  128      C      -3.6094495544    -1.2330817428    -1.6488391948
  129      C      -5.9288431594    -0.2505680371    -2.8979541308
  130      C      -5.5605218456     2.3235939562    -3.8778660871
  131      C      -3.1521776140    -0.3012231514     1.7143823171
  132      C      -3.8958064522     4.0470266680    -3.2956330181
  133      C      -5.9335751393    -1.2790959296     1.1513950740
  134      C      -7.1104866808    -0.6032753339     0.4645007984
  135      C      -2.8584883557     3.0558380981    -3.3682166625
  136      C      -6.7341797705     4.7943280545    -0.4400392895
  137      C      -4.6775454118     5.2627357103    -1.3197178571
  138      C      -4.5992183757     5.3426138673     0.0967684137
  139      C      -3.4737868685     4.1305017301     1.8732314979
  140      C      -7.4324064592     0.5647317294     1.1275363603
  141      C      -3.3595372745    -1.2666317658     0.6185163680
  142      C      -2.4422387101     3.1258870490     1.7225937226
  143      C      -6.9650611300     0.6752508745    -2.8623920679
  144      C      -2.2176464806     0.7087687513     1.5478382775
  145      C      -3.5365723102    -0.3895930804    -2.8364543613
  146      C      -7.8583450889     3.0006924927     0.9009520633
  147      C      -2.4016359581     4.2937480672    -0.1283538884
  148      C      -4.8390101057    -1.5780396187    -1.1258440566
  149      C      -5.9056320725     4.2056133426     1.8417807517
  150      C      -4.6855171167     0.0885099915    -3.4567254992
  151      C      -1.7870689852     0.0148501979    -0.7859110796
  152      C      -6.2594668677     4.0553904432    -2.6997660133
  153      C      -7.2351999769     3.0838485771    -2.6324287873
  154      C      -1.7545332191     0.8180342678    -1.9432920773
  155      C      -7.9992576743     1.6361154079     0.4417581793
  156      C      -7.1383426441    -0.5887919122    -0.9630563023
  157      C      -7.7538234360     3.7791138670    -0.3653134650
  158      C      -5.5730859764    -0.1900788819     2.1566171555
  159      C      -1.3479628493     2.1344688534    -0.1749613627
  160      C      -6.0029899303    -0.9800785961    -1.6826012600
  161      C      -2.6268182991     0.6065139961    -2.9878886089
  162      C      -6.8857964449     3.2053581973     1.9711656327
  163      C      -2.0271614668     3.2722909328    -2.3121268111
  164      C      -4.6932120263     3.7841447704     2.4707941650
  165      C      -3.6088971218     4.8534200760    -2.1393351725
  166      C      -1.5533360097     0.8035401057     0.3010696588
  167      C      -1.4408997015     2.1259393213    -1.5950430465
  168      C      -4.2149003857     0.2056832109     2.4451067866
  169      C      -6.5316138847     0.7935187760     2.2273341712
  170      C      -5.9648495679     4.8970943706    -1.6392165589
  171      C      -1.8460921177     3.2139106480     0.5029203703
  172      C      -4.4849767220     1.3906335658    -4.0388927838
  173      C      -7.9430468157     2.9139822612    -1.4693401030
  174      C      -5.2250673509     3.6558878259    -3.5515038242
  175      C      -6.2447455887     2.1220345074     2.6397144960
  176      C      -5.8298025082     4.9850530846     0.6508460071
 ----------------------------------------------------------------
 Molecular Point Group                 C1    NOp =  1
 Largest Abelian Subgroup              C1    NOp =  1
 Nuclear Repulsion Energy = 34010.5163863057 hartrees
 There are      462 alpha and      462 beta electrons
 Requested basis set is 6-31G(d,p)
 There are 676 shells and 2360 basis functions

 Total QAlloc Memory Limit  20000 MB
 Mega-Array Size      4888 MB
 MEM_STATIC part      5000 MB
 A cutoff of  1.0D-08 yielded  36424 shell pairs
 There are    515052 function pairs
 
 -------------------------------------------------------
 OpenMP Integral Computing Module                       
 Release: version 1.0, May 2013, Q-Chem Inc. Pittsburgh 
 -------------------------------------------------------
 Integral Job Info:
 Integral job number is                      11
 Integral operator is                         1
 short-range coefficients                     0
 long-range coefficients              100000000
 Omega coefficients                           0
 if combine SR and LR in K                    0
 Integral screening is                        0
 Integral computing path is                   2
 max size of driver memory is            800000
 size of driver memory is                593474
 size of scratch memory is              2260544
 max col of scratch BK array               1296
 max len of scratch array in speh3          155
 max len of scratch index in speh4           18
 max int batch size is                      520
 min int batch size is                       52
 fixed nKL is                                52
 max L of basis functions is                  2
 order of int derivative is                   0
 number of shells is                        676
 number of basis is                        2360
 number of cartesian basis is              2360
 number of contracted shell pairs         36424
 number of primitive shell pairs         111323
 maxK2 (contraction) of shell pair           36
 max number of K2 of shell pair               1
 max number of CS2 of shell pair           6992
 max number of PS2 of shell pair          33906
 mem total for path MDJ                 1460568
 -------------------------------------------------------
 Smallest overlap matrix eigenvalue = 2.46E-04

 Scale SEOQF with 1.000000e-02/1.000000e-02/1.000000e-02

 Standard Electronic Orientation quadrupole field applied
 Nucleus-field energy     =     0.0000001137 hartrees
 Guess from superposition of atomic densities
 Warning:  Energy on first SCF cycle will be non-variational
 A restricted hybrid HF-DFT SCF calculation will be
 performed using Pulay DIIS extrapolation
 Exchange:     0.2000 Hartree-Fock + 0.0800 Slater + 0.7200 B88
 Correlation:  0.1900 VWN1RPA + 0.8100 LYP
 Using SG-1 standard quadrature grid
 SCF converges when DIIS error is below 1.0E-05
 using 16 threads for integral computing 
 -------------------------------------------------------
 OpenMP BLAS3 based DFT computing Module                
 Release: version 1.0, May 2013, Q-Chem Inc. Pittsburgh 
 -------------------------------------------------------
 ---------------------------------------
  Cycle       Energy         DIIS Error
 ---------------------------------------
    1   -5858.0911531153      1.83E-02
    2   -5803.1246396321      1.29E-03
    3   -5802.3008145858      1.80E-03
    4   -5803.9524263782      6.68E-04
    5   -5804.1925136126      3.27E-04
    6   -5804.2631936516      1.44E-04
    7   -5804.2765076479      5.10E-05
    8   -5804.2776304788      3.42E-05
    9   -5804.2785530399      8.17E-06 Convergence criterion met
 ---------------------------------------
 SCF time:  CPU 7116.22 s  wall 829.54 s
 SCF   energy in the final basis set = -5804.2785530399
 Total energy in the final basis set = -5804.2785530399
 
 --------------------------------------------------------------
 
                    Orbital Energies (a.u.)
 --------------------------------------------------------------
 
 Alpha MOs
 -- Occupied --
-19.192 -19.188 -19.138 -19.129 -10.318 -10.318 -10.254 -10.245
-10.244 -10.244 -10.240 -10.239 -10.236 -10.235 -10.234 -10.229
-10.229 -10.229 -10.228 -10.228 -10.226 -10.226 -10.225 -10.223
-10.222 -10.221 -10.221 -10.221 -10.221 -10.221 -10.220 -10.220
-10.220 -10.220 -10.220 -10.220 -10.220 -10.220 -10.220 -10.219
-10.219 -10.219 -10.219 -10.219 -10.219 -10.218 -10.218 -10.218
-10.218 -10.218 -10.218 -10.218 -10.218 -10.217 -10.217 -10.217
-10.217 -10.217 -10.217 -10.217 -10.217 -10.217 -10.216 -10.216
-10.216 -10.216 -10.216 -10.216 -10.215 -10.215 -10.215 -10.215
-10.215 -10.215 -10.215 -10.215 -10.214 -10.214 -10.214 -10.214
-10.214 -10.214 -10.214 -10.214 -10.213 -10.213 -10.213 -10.213
-10.213 -10.213 -10.212 -10.212 -10.212 -10.212 -10.212 -10.212
-10.212 -10.212 -10.212 -10.212 -10.211 -10.211 -10.211 -10.211
-10.211 -10.211 -10.210 -10.210 -10.210 -10.210 -10.210 -10.210
-10.209 -10.209 -10.209 -10.209 -10.209 -10.209 -10.209 -10.209
-10.208 -10.208 -10.208 -10.208 -10.207 -10.207 -10.207 -10.207
-10.207 -10.207 -10.206 -10.206 -10.206 -10.204 -10.204 -10.203
-10.202 -10.201 -10.200 -10.200 -10.199 -10.198 -10.198 -10.198
-10.196 -10.196 -10.195 -10.194  -1.099  -1.084  -1.009  -1.008
 -0.984  -0.980  -0.967  -0.964  -0.963  -0.961  -0.960  -0.957
 -0.937  -0.929  -0.928  -0.924  -0.923  -0.923  -0.922  -0.922
 -0.921  -0.919  -0.898  -0.894  -0.889  -0.885  -0.885  -0.884
 -0.875  -0.872  -0.857  -0.852  -0.841  -0.839  -0.839  -0.838
 -0.838  -0.834  -0.821  -0.817  -0.804  -0.801  -0.799  -0.796
 -0.795  -0.795  -0.793  -0.792  -0.791  -0.790  -0.785  -0.782
 -0.771  -0.770  -0.769  -0.768  -0.767  -0.765  -0.763  -0.763
 -0.755  -0.750  -0.743  -0.742  -0.735  -0.733  -0.718  -0.716
 -0.715  -0.712  -0.712  -0.711  -0.710  -0.709  -0.709  -0.708
 -0.707  -0.706  -0.705  -0.704  -0.703  -0.702  -0.673  -0.671
 -0.662  -0.659  -0.658  -0.654  -0.650  -0.644  -0.632  -0.632
 -0.629  -0.625  -0.625  -0.622  -0.622  -0.619  -0.619  -0.617
 -0.616  -0.613  -0.612  -0.611  -0.610  -0.610  -0.608  -0.606
 -0.606  -0.605  -0.603  -0.601  -0.569  -0.567  -0.565  -0.563
 -0.561  -0.559  -0.558  -0.557  -0.556  -0.555  -0.554  -0.553
 -0.538  -0.537  -0.536  -0.532  -0.528  -0.525  -0.524  -0.524
 -0.522  -0.521  -0.519  -0.517  -0.514  -0.514  -0.514  -0.512
 -0.506  -0.506  -0.502  -0.498  -0.492  -0.489  -0.488  -0.485
 -0.484  -0.483  -0.481  -0.480  -0.480  -0.478  -0.475  -0.475
 -0.473  -0.472  -0.470  -0.468  -0.468  -0.467  -0.467  -0.465
 -0.465  -0.464  -0.463  -0.461  -0.461  -0.460  -0.459  -0.456
 -0.456  -0.455  -0.454  -0.452  -0.449  -0.444  -0.442  -0.442
 -0.441  -0.440  -0.439  -0.439  -0.437  -0.436  -0.433  -0.431
 -0.430  -0.429  -0.429  -0.427  -0.427  -0.427  -0.425  -0.424
 -0.423  -0.422  -0.421  -0.421  -0.420  -0.418  -0.418  -0.418
 -0.417  -0.416  -0.416  -0.416  -0.415  -0.415  -0.414  -0.413
 -0.413  -0.411  -0.411  -0.408  -0.404  -0.401  -0.399  -0.396
 -0.392  -0.391  -0.390  -0.389  -0.388  -0.387  -0.383  -0.382
 -0.382  -0.379  -0.373  -0.372  -0.369  -0.368  -0.366  -0.366
 -0.365  -0.364  -0.363  -0.362  -0.360  -0.359  -0.359  -0.358
 -0.355  -0.355  -0.354  -0.353  -0.353  -0.352  -0.351  -0.351
 -0.350  -0.348  -0.347  -0.346  -0.345  -0.345  -0.344  -0.343
 -0.341  -0.341  -0.341  -0.338  -0.338  -0.338  -0.335  -0.332
 -0.332  -0.331  -0.330  -0.329  -0.328  -0.328  -0.327  -0.322
 -0.305  -0.304  -0.298  -0.297  -0.290  -0.287  -0.273  -0.272
 -0.270  -0.269  -0.267  -0.267  -0.265  -0.265  -0.264  -0.263
 -0.262  -0.261  -0.260  -0.259  -0.257  -0.256  -0.254  -0.253
 -0.250  -0.249  -0.246  -0.244  -0.222  -0.219  -0.215  -0.210
 -0.209  -0.208  -0.207  -0.205  -0.202  -0.196
 -- Virtual --
 -0.123  -0.121  -0.118  -0.118  -0.111  -0.108  -0.076  -0.074
 -0.073  -0.072  -0.061  -0.059  -0.054  -0.053  -0.026  -0.024
 -0.021  -0.021  -0.019  -0.018  -0.017  -0.017  -0.014  -0.014
 -0.013  -0.010  -0.008  -0.007  -0.005  -0.004   0.000   0.004
  0.008   0.014   0.036   0.038   0.040   0.041   0.044   0.045
  0.047   0.049   0.051   0.055   0.059   0.064   0.066   0.067
  0.068   0.072   0.076   0.080   0.081   0.083   0.087   0.091
  0.092   0.097   0.098   0.100   0.101   0.104   0.105   0.107
  0.109   0.109   0.110   0.112   0.114   0.115   0.116   0.118
  0.120   0.124   0.126   0.130   0.131   0.134   0.135   0.138
  0.141   0.142   0.145   0.146   0.147   0.149   0.151   0.154
  0.156   0.157   0.158   0.160   0.161   0.163   0.165   0.167
  0.170   0.172   0.172   0.173   0.174   0.176   0.179   0.181
  0.181   0.182   0.184   0.187   0.188   0.189   0.190   0.190
  0.193   0.195   0.198   0.198   0.199   0.202   0.202   0.206
  0.207   0.209   0.209   0.210   0.212   0.213   0.218   0.219
  0.220   0.221   0.221   0.223   0.224   0.225   0.227   0.227
  0.228   0.230   0.231   0.232   0.233   0.236   0.239   0.241
  0.242   0.244   0.246   0.248   0.248   0.253   0.259   0.261
  0.265   0.266   0.268   0.270   0.275   0.275   0.276   0.279
  0.280   0.281   0.285   0.286   0.291   0.292   0.298   0.303
  0.305   0.308   0.308   0.313   0.314   0.315   0.315   0.318
  0.319   0.321   0.322   0.326   0.326   0.331   0.332   0.333
  0.334   0.336   0.343   0.343   0.344   0.346   0.348   0.351
  0.351   0.352   0.356   0.364   0.365   0.375   0.381   0.391
  0.393   0.394   0.395   0.399   0.402   0.405   0.406   0.407
  0.409   0.409   0.412   0.415   0.416   0.419   0.422   0.424
  0.427   0.428   0.432   0.433   0.438   0.445   0.446   0.447
  0.447   0.448   0.455   0.456   0.460   0.460   0.464   0.465
  0.469   0.470   0.472   0.473   0.475   0.476   0.476   0.478
  0.479   0.480   0.481   0.482   0.483   0.485   0.486   0.487
  0.487   0.488   0.490   0.491   0.493   0.494   0.495   0.496
  0.497   0.498   0.498   0.499   0.502   0.503   0.504   0.505
  0.506   0.507   0.508   0.509   0.509   0.510   0.511   0.511
  0.511   0.512   0.513   0.514   0.515   0.516   0.517   0.517
  0.519   0.520   0.521   0.522   0.522   0.523   0.524   0.525
  0.526   0.527   0.528   0.530   0.530   0.531   0.531   0.533
  0.533   0.534   0.535   0.535   0.537   0.537   0.538   0.538
  0.539   0.539   0.540   0.540   0.541   0.543   0.544   0.545
  0.546   0.546   0.546   0.547   0.547   0.548   0.549   0.551
  0.552   0.553   0.553   0.554   0.554   0.555   0.556   0.556
  0.558   0.558   0.559   0.560   0.560   0.561   0.561   0.562
  0.563   0.564   0.566   0.566   0.567   0.567   0.568   0.568
  0.569   0.571   0.571   0.572   0.573   0.574   0.575   0.575
  0.575   0.577   0.577   0.578   0.579   0.580   0.582   0.583
  0.585   0.586   0.587   0.587   0.588   0.589   0.590   0.591
  0.591   0.592   0.593   0.594   0.594   0.595   0.597   0.599
  0.600   0.600   0.601   0.602   0.602   0.603   0.605   0.606
  0.608   0.611   0.612   0.613   0.614   0.615   0.616   0.617
  0.618   0.618   0.619   0.620   0.622   0.623   0.623   0.625
  0.626   0.627   0.629   0.629   0.630   0.631   0.632   0.633
  0.633   0.635   0.635   0.636   0.637   0.638   0.638   0.639
  0.641   0.642   0.643   0.644   0.645   0.645   0.648   0.649
  0.650   0.650   0.651   0.652   0.654   0.655   0.656   0.656
  0.657   0.658   0.659   0.660   0.660   0.660   0.662   0.662
  0.662   0.664   0.665   0.665   0.666   0.667   0.668   0.668
  0.669   0.670   0.671   0.672   0.673   0.673   0.674   0.675
  0.678   0.680   0.681   0.682   0.682   0.684   0.685   0.688
  0.689   0.690   0.691   0.692   0.693   0.693   0.694   0.695
  0.697   0.698   0.701   0.701   0.701   0.703   0.704   0.704
  0.706   0.706   0.707   0.707   0.708   0.711   0.713   0.714
  0.715   0.717   0.717   0.718   0.719   0.720   0.722   0.723
  0.723   0.725   0.727   0.729   0.729   0.730   0.731   0.733
  0.734   0.734   0.737   0.738   0.740   0.743   0.744   0.745
  0.747   0.748   0.750   0.751   0.752   0.753   0.755   0.756
  0.758   0.759   0.760   0.762   0.764   0.765   0.765   0.767
  0.768   0.769   0.770   0.771   0.773   0.774   0.775   0.775
  0.777   0.778   0.778   0.779   0.781   0.784   0.785   0.785
  0.786   0.788   0.789   0.791   0.791   0.792   0.794   0.796
  0.796   0.797   0.799   0.800   0.800   0.800   0.801   0.802
  0.804   0.805   0.805   0.808   0.809   0.809   0.810   0.810
  0.812   0.812   0.813   0.815   0.815   0.816   0.817   0.817
  0.819   0.819   0.820   0.821   0.822   0.823   0.823   0.824
  0.824   0.825   0.827   0.827   0.828   0.829   0.830   0.831
  0.833   0.834   0.837   0.838   0.839   0.842   0.844   0.846
  0.847   0.849   0.850   0.853   0.856   0.856   0.857   0.859
  0.862   0.864   0.867   0.874   0.875   0.880   0.883   0.884
  0.887   0.889   0.892   0.893   0.895   0.900   0.901   0.902
  0.906   0.907   0.911   0.913   0.917   0.919   0.920   0.922
  0.924   0.925   0.926   0.928   0.929   0.931   0.933   0.934
  0.936   0.937   0.938   0.939   0.940   0.942   0.945   0.947
  0.948   0.949   0.954   0.954   0.957   0.958   0.965   0.969
  0.970   0.972   0.978   0.978   0.981   0.983   0.985   0.987
  0.991   0.992   0.993   0.995   0.996   1.000   1.003   1.004
  1.005   1.006   1.010   1.010   1.010   1.012   1.013   1.016
  1.019   1.020   1.021   1.023   1.025   1.026   1.027   1.028
  1.029   1.030   1.033   1.033   1.035   1.036   1.037   1.039
  1.041   1.043   1.044   1.046   1.046   1.048   1.050   1.052
  1.054   1.057   1.060   1.060   1.062   1.065   1.066   1.067
  1.069   1.072   1.073   1.073   1.074   1.077   1.078   1.080
  1.082   1.083   1.084   1.087   1.088   1.089   1.092   1.093
  1.096   1.097   1.097   1.098   1.100   1.102   1.104   1.105
  1.107   1.111   1.112   1.113   1.116   1.116   1.119   1.123
  1.126   1.129   1.133   1.134   1.138   1.139   1.143   1.144
  1.144   1.147   1.148   1.150   1.150   1.153   1.154   1.157
  1.160   1.162   1.163   1.164   1.164   1.166   1.168   1.169
  1.171   1.171   1.173   1.174   1.177   1.178   1.180   1.181
  1.182   1.184   1.186   1.186   1.190   1.192   1.193   1.195
  1.198   1.200   1.202   1.203   1.205   1.206   1.208   1.212
  1.215   1.218   1.221   1.226   1.229   1.235   1.238   1.239
  1.242   1.244   1.247   1.250   1.252   1.253   1.254   1.255
  1.257   1.259   1.260   1.263   1.264   1.266   1.269   1.271
  1.272   1.274   1.274   1.279   1.281   1.281   1.284   1.285
  1.287   1.290   1.293   1.297   1.298   1.299   1.304   1.305
  1.306   1.309   1.313   1.316   1.318   1.320   1.321   1.323
  1.328   1.329   1.331   1.334   1.338   1.341   1.343   1.344
  1.348   1.352   1.354   1.355   1.358   1.359   1.364   1.367
  1.368   1.368   1.370   1.374   1.375   1.379   1.379   1.380
  1.382   1.388   1.390   1.392   1.394   1.397   1.398   1.401
  1.404   1.405   1.407   1.410   1.411   1.415   1.418   1.421
  1.423   1.426   1.427   1.432   1.435   1.437   1.440   1.445
  1.447   1.449   1.451   1.454   1.454   1.458   1.461   1.461
  1.463   1.465   1.466   1.467   1.468   1.471   1.475   1.475
  1.476   1.478   1.481   1.483   1.486   1.488   1.491   1.493
  1.494   1.495   1.499   1.501   1.505   1.506   1.511   1.512
  1.516   1.520   1.522   1.525   1.528   1.530   1.534   1.537
  1.539   1.542   1.543   1.545   1.548   1.553   1.554   1.554
  1.559   1.559   1.560   1.564   1.565   1.566   1.567   1.568
  1.572   1.576   1.577   1.579   1.582   1.584   1.585   1.588
  1.590   1.596   1.597   1.599   1.601   1.605   1.612   1.617
  1.618   1.621   1.623   1.624   1.627   1.631   1.632   1.634
  1.638   1.643   1.645   1.647   1.649   1.656   1.664   1.664
  1.671   1.675   1.680   1.683   1.686   1.686   1.690   1.692
  1.695   1.696   1.701   1.702   1.705   1.707   1.710   1.712
  1.714   1.715   1.720   1.721   1.722   1.724   1.727   1.727
  1.728   1.730   1.730   1.733   1.737   1.738   1.739   1.741
  1.743   1.744   1.745   1.747   1.748   1.750   1.752   1.753
  1.755   1.756   1.758   1.759   1.761   1.762   1.762   1.764
  1.765   1.767   1.768   1.770   1.772   1.773   1.775   1.777
  1.778   1.778   1.779   1.781   1.783   1.783   1.783   1.785
  1.785   1.789   1.790   1.792   1.793   1.794   1.796   1.797
  1.799   1.800   1.800   1.804   1.805   1.806   1.808   1.808
  1.809   1.810   1.811   1.812   1.814   1.814   1.816   1.819
  1.819   1.823   1.825   1.827   1.828   1.831   1.834   1.835
  1.839   1.844   1.845   1.846   1.848   1.852   1.852   1.854
  1.857   1.860   1.861   1.864   1.866   1.868   1.868   1.870
  1.872   1.872   1.873   1.874   1.875   1.877   1.878   1.881
  1.882   1.885   1.886   1.888   1.889   1.890   1.894   1.896
  1.898   1.905   1.907   1.910   1.911   1.912   1.915   1.917
  1.919   1.920   1.923   1.924   1.927   1.929   1.931   1.934
  1.936   1.937   1.938   1.939   1.942   1.943   1.946   1.948
  1.949   1.952   1.953   1.955   1.958   1.961   1.963   1.967
  1.969   1.970   1.972   1.973   1.973   1.977   1.979   1.980
  1.982   1.984   1.984   1.986   1.988   1.989   1.992   1.993
  1.993   1.995   1.997   2.000   2.000   2.001   2.001   2.002
  2.004   2.005   2.006   2.007   2.009   2.009   2.011   2.014
  2.015   2.016   2.016   2.017   2.019   2.020   2.022   2.024
  2.024   2.025   2.027   2.029   2.030   2.031   2.033   2.033
  2.034   2.035   2.036   2.039   2.040   2.041   2.043   2.043
  2.044   2.045   2.046   2.047   2.048   2.049   2.049   2.051
  2.052   2.053   2.054   2.057   2.057   2.059   2.061   2.061
  2.063   2.064   2.066   2.067   2.068   2.069   2.072   2.073
  2.074   2.074   2.077   2.078   2.080   2.081   2.083   2.085
  2.087   2.087   2.088   2.090   2.093   2.096   2.099   2.100
  2.100   2.102   2.103   2.106   2.109   2.110   2.112   2.115
  2.118   2.120   2.123   2.124   2.128   2.131   2.133   2.138
  2.139   2.141   2.147   2.150   2.156   2.158   2.159   2.163
  2.168   2.172   2.176   2.180   2.184   2.192   2.195   2.199
  2.201   2.210   2.210   2.212   2.215   2.218   2.219   2.221
  2.222   2.229   2.231   2.233   2.237   2.239   2.241   2.243
  2.245   2.246   2.249   2.251   2.251   2.253   2.254   2.262
  2.262   2.264   2.267   2.268   2.269   2.273   2.277   2.281
  2.282   2.283   2.286   2.286   2.290   2.291   2.291   2.293
  2.295   2.300   2.301   2.303   2.308   2.309   2.312   2.317
  2.320   2.322   2.323   2.325   2.327   2.328   2.329   2.332
  2.333   2.338   2.339   2.343   2.344   2.347   2.349   2.352
  2.353   2.355   2.356   2.360   2.361   2.363   2.366   2.367
  2.368   2.369   2.371   2.372   2.373   2.376   2.377   2.378
  2.380   2.381   2.384   2.385   2.387   2.389   2.391   2.393
  2.394   2.396   2.399   2.401   2.402   2.403   2.404   2.406
  2.406   2.408   2.410   2.412   2.414   2.418   2.420   2.421
  2.421   2.423   2.425   2.430   2.434   2.436   2.441   2.442
  2.444   2.448   2.449   2.450   2.452   2.455   2.456   2.459
  2.460   2.462   2.464   2.465   2.467   2.467   2.470   2.471
  2.474   2.476   2.477   2.479   2.481   2.481   2.485   2.486
  2.489   2.490   2.492   2.494   2.496   2.500   2.501   2.502
  2.505   2.506   2.508   2.511   2.512   2.514   2.515   2.516
  2.517   2.519   2.524   2.528   2.529   2.530   2.531   2.533
  2.536   2.538   2.542   2.547   2.548   2.552   2.553   2.557
  2.559   2.564   2.570   2.570   2.574   2.578   2.580   2.583
  2.586   2.588   2.589   2.590   2.591   2.595   2.598   2.600
  2.602   2.605   2.606   2.608   2.611   2.612   2.614   2.617
  2.619   2.620   2.623   2.623   2.626   2.627   2.627   2.628
  2.631   2.633   2.634   2.635   2.638   2.639   2.641   2.642
  2.644   2.645   2.648   2.649   2.650   2.653   2.654   2.659
  2.660   2.661   2.661   2.663   2.664   2.665   2.668   2.669
  2.670   2.672   2.673   2.674   2.676   2.677   2.680   2.681
  2.684   2.687   2.690   2.694   2.695   2.700   2.702   2.704
  2.706   2.707   2.709   2.710   2.713   2.717   2.718   2.722
  2.723   2.726   2.731   2.732   2.734   2.736   2.740   2.740
  2.741   2.745   2.746   2.749   2.750   2.752   2.757   2.758
  2.761   2.762   2.764   2.766   2.768   2.770   2.773   2.775
  2.776   2.778   2.781   2.783   2.784   2.785   2.791   2.792
  2.795   2.798   2.799   2.801   2.809   2.810   2.816   2.819
  2.822   2.824   2.825   2.827   2.830   2.831   2.833   2.836
  2.838   2.840   2.841   2.844   2.846   2.850   2.850   2.853
  2.855   2.857   2.862   2.864   2.867   2.867   2.870   2.873
  2.875   2.876   2.878   2.881   2.881   2.884   2.884   2.885
  2.888   2.890   2.893   2.894   2.896   2.896   2.897   2.899
  2.899   2.904   2.905   2.907   2.910   2.910   2.912   2.914
  2.915   2.918   2.920   2.922   2.925   2.928   2.930   2.932
  2.933   2.935   2.936   2.937   2.940   2.944   2.946   2.950
  2.954   2.954   2.959   2.960   2.964   2.970   2.973   2.975
  2.977   2.981   2.983   2.991   2.992   2.995   2.996   2.999
  3.001   3.003   3.005   3.007   3.010   3.012   3.017   3.017
  3.019   3.023   3.025   3.027   3.033   3.035   3.040   3.043
  3.044   3.046   3.051   3.051   3.054   3.057   3.059   3.064
  3.065   3.067   3.071   3.074   3.075   3.082   3.086   3.096
  3.101   3.115   3.118   3.128   3.134   3.137   3.142   3.144
  3.156   3.156   3.160   3.166   3.166   3.175   3.177   3.180
  3.189   3.190   3.199   3.211   3.218   3.227   3.232   3.233
  3.239   3.242   3.247   3.257   3.264   3.271   3.276   3.277
  3.294   3.301   3.309   3.312   3.318   3.322   3.325   3.329
  3.331   3.334   3.338   3.343   3.349   3.358   3.369   3.380
  3.384   3.405   3.414   3.418   3.423   3.428   3.440   3.442
  3.450   3.453   3.455   3.466   3.469   3.480   3.482   3.486
  3.503   3.504   3.510   3.515   3.521   3.522   3.532   3.547
  3.554   3.557   3.559   3.570   3.572   3.589   3.597   3.603
  3.615   3.623   3.680   3.691   3.853   3.879   3.994   4.001
  4.059   4.066   4.074   4.080   4.083   4.088   4.091   4.091
  4.092   4.098   4.099   4.103   4.106   4.109   4.110   4.114
  4.122   4.125   4.128   4.131   4.137   4.141   4.145   4.149
  4.150   4.155   4.155   4.156   4.163   4.164   4.166   4.172
  4.175   4.178   4.185   4.190   4.196   4.203   4.220   4.226
  4.231   4.239   4.240   4.243   4.245   4.249   4.251   4.257
  4.259   4.260   4.261   4.266   4.272   4.279   4.282   4.284
  4.288   4.291   4.302   4.313   4.366   4.376   4.384   4.389
  4.390   4.394   4.394   4.398   4.402   4.403   4.408   4.413
  4.415   4.417   4.419   4.422   4.428   4.433   4.453   4.455
  4.461   4.487   4.490   4.517   4.529   4.530   4.545   4.548
  4.552   4.555   4.600   4.609   4.618   4.627   4.628   4.633
  4.634   4.639   4.662   4.678   4.685   4.688   4.691   4.693
  4.695   4.697   4.702   4.712   4.740   4.760   4.798   4.812
  4.844   4.858   4.858   4.862   4.865   4.876   4.877   4.882
  4.894   4.907   4.949   4.960   4.963   4.969   4.972   4.976
  4.984   4.991   4.994   5.001   5.155   5.167   5.169   5.180
  5.187   5.198   5.201   5.221   5.311   5.320   5.328   5.343
  5.351   5.366
 --------------------------------------------------------------
 
          Ground-State Mulliken Net Atomic Charges

     Atom                 Charge (a.u.)
  ----------------------------------------
      1 O                    -0.481453
      2 C                    -0.084428
      3 H                     0.122742
      4 H                     0.129244
      5 H                     0.124456
      6 O                    -0.473754
      7 C                     0.614190
      8 C                    -0.271858
      9 H                     0.138355
     10 H                     0.138266
     11 C                    -0.184516
     12 H                     0.112259
     13 H                     0.135305
     14 C                    -0.196871
     15 H                     0.105674
     16 H                     0.110928
     17 C                     0.012439
     18 C                     0.085560
     19 C                    -0.091468
     20 H                     0.096468
     21 C                    -0.104822
     22 H                     0.093541
     23 C                    -0.081960
     24 H                     0.090231
     25 C                    -0.083955
     26 H                     0.090759
     27 C                    -0.097397
     28 H                     0.088963
     29 C                     0.012872
     30 C                    -0.011410
     31 C                     0.021037
     32 C                    -0.014878
     33 C                    -0.028641
     34 C                    -0.000656
     35 C                    -0.013875
     36 C                    -0.016981
     37 C                     0.020694
     38 C                     0.023549
     39 C                    -0.087948
     40 C                     0.024229
     41 C                    -0.019477
     42 C                    -0.015817
     43 C                     0.014060
     44 C                     0.002445
     45 C                    -0.077369
     46 C                     0.053549
     47 C                    -0.011846
     48 C                     0.021025
     49 C                     0.015350
     50 C                    -0.018177
     51 C                     0.004438
     52 C                    -0.014745
     53 C                     0.012893
     54 C                     0.000150
     55 C                     0.039220
     56 C                     0.016836
     57 C                    -0.000736
     58 C                    -0.007130
     59 C                    -0.043663
     60 C                     0.036627
     61 C                     0.008659
     62 C                     0.006114
     63 C                    -0.010089
     64 C                    -0.034379
     65 C                     0.013931
     66 C                    -0.010875
     67 C                     0.004750
     68 C                    -0.028977
     69 C                    -0.013488
     70 C                     0.024659
     71 C                     0.008544
     72 C                    -0.049000
     73 C                    -0.019585
     74 C                    -0.006192
     75 C                     0.021463
     76 C                    -0.029566
     77 C                     0.003956
     78 C                    -0.013400
     79 C                    -0.001772
     80 C                    -0.023474
     81 C                     0.016117
     82 C                    -0.011835
     83 C                     0.045356
     84 C                     0.017144
     85 C                    -0.011982
     86 C                     0.018028
     87 C                     0.001700
     88 C                     0.003563
     89 O                    -0.455869
     90 C                    -0.086174
     91 H                     0.131718
     92 H                     0.136681
     93 H                     0.134843
     94 O                    -0.455663
     95 C                     0.561006
     96 C                    -0.240098
     97 H                     0.131742
     98 H                     0.116948
     99 C                    -0.184213
    100 H                     0.109634
    101 H                     0.119503
    102 C                    -0.190290
    103 H                     0.107043
    104 H                     0.102803
    105 C                     0.000543
    106 C                     0.092511
    107 C                    -0.102422
    108 H                     0.090084
    109 C                    -0.098492
    110 H                     0.099078
    111 C                    -0.088764
    112 H                     0.094014
    113 C                    -0.085081
    114 H                     0.085885
    115 C                    -0.104149
    116 H                     0.097505
    117 C                    -0.012285
    118 C                     0.003822
    119 C                    -0.010929
    120 C                     0.044323
    121 C                    -0.001710
    122 C                     0.000766
    123 C                     0.003550
    124 C                     0.004304
    125 C                    -0.009617
    126 C                    -0.042139
    127 C                    -0.089123
    128 C                     0.008902
    129 C                     0.007786
    130 C                    -0.012037
    131 C                    -0.016389
    132 C                    -0.026220
    133 C                    -0.080663
    134 C                     0.012396
    135 C                     0.013836
    136 C                    -0.025433
    137 C                     0.026333
    138 C                    -0.018453
    139 C                    -0.002407
    140 C                     0.018168
    141 C                     0.022099
    142 C                    -0.033219
    143 C                     0.010623
    144 C                    -0.005534
    145 C                     0.025094
    146 C                    -0.043522
    147 C                    -0.002251
    148 C                     0.032011
    149 C                     0.007842
    150 C                    -0.030516
    151 C                     0.019677
    152 C                     0.026724
    153 C                     0.000109
    154 C                     0.000947
    155 C                     0.017563
    156 C                    -0.023668
    157 C                    -0.030594
    158 C                     0.035205
    159 C                    -0.017058
    160 C                     0.018776
    161 C                    -0.010974
    162 C                     0.004840
    163 C                     0.015148
    164 C                    -0.009704
    165 C                    -0.013225
    166 C                     0.003647
    167 C                    -0.024226
    168 C                     0.008185
    169 C                    -0.001410
    170 C                     0.007612
    171 C                     0.057547
    172 C                    -0.013919
    173 C                     0.006917
    174 C                     0.000234
    175 C                     0.007845
    176 C                     0.012173
  ----------------------------------------
  Sum of atomic charges =     0.000000

 -----------------------------------------------------------------
                    Cartesian Multipole Moments
 -----------------------------------------------------------------
    Charge (ESU x 10^10)
                 0.0000
    Dipole Moment (Debye)
         X       1.3945      Y      -2.4667      Z       2.7698
       Tot       3.9625
    Quadrupole Moments (Debye-Ang)
        XX    -811.0675     XY      32.1183     YY    -787.8750
        XZ     -21.5202     YZ     -22.2485     ZZ    -793.1781
    Octopole Moments (Debye-Ang^2)
       XXX     316.2798    XXY    -171.3152    XYY    -139.0874
       YYY     -54.8147    XXZ     185.2668    XYZ      -8.4335
       YYZ      29.7550    XZZ    -111.5966    YZZ    -103.4631
       ZZZ     277.6679
    Hexadecapole Moments (Debye-Ang^3)
      XXXX -160011.5720   XXXY    5736.0570   XXYY  -31394.1012
      XYYY    4243.7486   YYYY  -43326.9155   XXXZ   -3285.4678
      XXYZ   -2604.1254   XYYZ   -1381.7482   YYYZ    -916.6378
      XXZZ  -30738.2411   XYZZ     729.3969   YYZZ  -12339.2713
      XZZZ    -142.1837   YZZZ    -439.4882   ZZZZ  -28294.9618
 -----------------------------------------------------------------
Archival summary:
1\1\mn366\SP\ProcedureUnspecified\6-31G**\428\afmv_a\SunOct709:07:342018SunOct709:07:342018\0\\#,ProcedureUnspecified,6-31G**,\\0,1\C\C,1,1.36315\C,1,1.3975,2,117.586\C,3,1.36268,1,118.429,2,-136.862,0\C,4,1.37998,3,110.26,1,141.829,0\C,1,1.40915,2,108.735,3,-142.98,0\C,6,1.37725,1,121.386,2,141.761,0\C,7,1.3575,6,116.907,1,-1.4733,0\C,6,1.38934,1,109.628,2,-2.49427,0\C,8,1.39047,7,104.578,6,-143.636,0\C,10,1.40466,8,118.095,7,144.628,0\C,11,1.39002,10,120.614,8,-141.451,0\C,12,1.35213,11,121.893,10,0.0960634,0\C,2,1.41588,1,125.661,3,3.49347,0\C,14,1.38606,2,118.094,1,-2.74988,0\C,15,1.38575,14,108.293,2,141.1,0\C,16,1.37891,15,108.126,14,3.96005,0\C,17,1.40327,16,108.724,15,-3.86316,0\C,18,1.39559,17,121.677,16,-141.446,0\C,19,1.36042,18,117.443,17,134.237,0\C,20,1.36852,19,123.543,18,6.86228,0\C,20,1.36864,19,106.66,18,-144.383,0\C,11,1.41942,10,120.724,8,-4.38593,0\C,23,1.39996,11,109.804,10,-147.449,0\C,13,1.42258,12,119.066,11,2.54066,0\C,25,1.41211,13,112.926,12,140.849,0\C,26,1.39823,25,103.569,13,-5.25393,0\C,27,1.37858,26,110.61,25,6.3197,0\C,28,1.37211,27,119.59,26,-147.81,0\C,27,1.38565,26,118.849,25,-143.826,0\C,30,1.37584,27,122.555,26,5.84372,0\C,29,1.39624,28,119.791,27,130.536,0\C,32,1.36836,29,112.569,28,-141.028,0\C,33,1.39265,32,121.144,29,146.148,0\C,34,1.38112,33,120.602,32,9.01712,0\C,32,1.39377,29,120.264,28,10.9471,0\C,31,1.40759,30,119.858,27,-4.45824,0\C,37,1.39353,31,119.539,30,134.258,0\C,38,1.37094,37,108.467,31,-139.488,0\C,39,1.36135,38,111.104,37,0.762512,0\C,40,1.38988,39,119.311,38,140.815,0\C,41,1.40677,40,120.037,39,-135.171,0\C,26,1.40904,25,121.869,13,-145.193,0\C,29,1.41532,28,121.103,27,-4.39225,0\C,31,1.4209,30,107.339,27,143.709,0\C,45,1.39444,31,117.324,30,-139.672,0\C,46,1.37566,45,122.383,31,139.651,0\C,45,1.39613,31,109.43,30,-1.82406,0\C,47,1.40144,46,120.802,45,-3.95072,0\C,17,1.42432,16,119.98,15,-148.759,0\C,50,1.38224,17,119.639,16,4.22261,0\C,51,1.42032,50,119.22,17,-2.35745,0\C,52,1.37522,51,122.899,50,-1.73936,0\C,51,1.4253,50,109.969,17,140.126,0\C,54,1.4064,51,105.68,50,-2.27508,0\C,30,1.42845,27,118.968,26,148.815,0\C,3,1.44078,1,120.741,2,1.76769,0\C,33,1.44665,32,108.82,29,-3.15152,0\C,5,1.4862,4,111.197,3,7.84897,0\C,59,1.51945,5,115.66,4,-140.711,0\C,60,1.54276,59,60.6016,5,-121.404,0\C,61,1.53287,60,129.863,59,-103.666,0\C,62,1.37291,61,120.192,60,126.415,0\H,63,1.0859,62,119.156,61,5.53503,0\C,62,1.39737,61,118.211,60,-41.3469,0\H,65,1.08616,62,125.895,61,-4.68508,0\C,65,1.40723,62,117.561,61,177.46,0\H,67,1.08624,65,113.423,62,178.414,0\C,67,1.37666,65,123.424,62,-5.70036,0\H,69,1.08598,67,123.239,65,-177.457,0\C,63,1.42114,62,122.387,61,-178.931,0\H,71,1.08663,63,115.28,62,-176.595,0\C,61,1.5698,60,112.33,59,113.963,0\H,73,1.09687,61,106.001,60,-56.3745,0\H,73,1.09714,61,109.62,60,-165.95,0\C,73,1.51316,61,119.585,60,65.0801,0\H,76,1.09723,73,106.87,61,-34.0227,0\H,76,1.09731,73,111.14,61,77.2716,0\C,76,1.54793,73,114.34,61,-160.435,0\H,79,1.0967,76,109.231,73,60.7895,0\H,79,1.09685,76,107.949,73,-52.1885,0\C,79,1.60302,76,112.618,73,-174.739,0\O,82,1.20424,79,122.071,76,-108.396,0\O,82,1.33342,79,114.697,76,60.9559,0\C,84,1.46387,82,123.082,79,-179.373,0\H,85,1.09718,84,112.24,82,-166.157,0\H,85,1.09739,84,104.005,82,71.6769,0\H,85,1.09743,84,111.982,82,-43.5171,0\C,1,3.42322,2,98.3698,3,117.701,0\C,89,1.31377,1,93.6306,2,-56.7203,0\C,89,1.3789,1,114.032,2,-173.427,0\C,90,1.40645,89,119.664,1,94.7237,0\C,92,1.36918,90,117.811,89,133.105,0\C,93,1.37647,92,123.547,90,2.41342,0\C,92,1.38125,90,120.11,89,-3.63505,0\C,95,1.37522,92,109.897,90,143.359,0\C,94,1.40114,93,118.925,92,-137.891,0\C,97,1.35729,94,121.169,93,-4.19339,0\C,96,1.41,95,108.113,92,1.18644,0\C,99,1.37965,96,122.047,95,-140.393,0\C,94,1.41077,93,120.753,92,0.246638,0\C,101,1.39784,94,108.995,93,-140.179,0\C,102,1.39892,101,107.488,94,-4.3833,0\C,103,1.39442,102,121.239,101,143.266,0\C,101,1.40858,94,116.598,93,-2.79337,0\C,105,1.39729,101,120.117,94,-137.634,0\C,106,1.39527,105,123.773,101,6.49884,0\C,107,1.42143,106,115.326,105,-2.11763,0\C,108,1.38888,107,108.905,106,144.999,0\C,109,1.40792,108,119.978,107,-147.878,0\C,109,1.41397,108,106.749,107,0.545453,0\C,111,1.37479,109,110.502,108,-4.74648,0\C,112,1.40721,111,125.708,109,-139.459,0\C,113,1.36467,112,118.674,111,137.17,0\C,113,1.37758,112,116.934,111,1.35486,0\C,114,1.38058,113,106.934,112,-140.579,0\C,116,1.38274,114,121.88,113,148.419,0\C,117,1.38316,116,118.467,114,-6.27693,0\C,118,1.38311,117,110.648,116,-139.781,0\C,117,1.38546,116,121.947,114,-139.135,0\C,119,1.40112,118,109.395,117,-1.1904,0\C,121,1.36837,119,118.707,118,139.066,0\C,122,1.38324,121,119.487,119,-133.255,0\C,123,1.3859,122,120.488,121,1.10385,0\C,124,1.39454,123,119.414,122,136.797,0\C,125,1.3809,124,111.403,123,-142.86,0\C,124,1.40245,123,123.092,122,-0.714581,0\C,115,1.4058,113,121.4,112,-1.72693,0\C,128,1.37518,115,119.28,113,137.904,0\C,122,1.41046,121,123.164,119,9.34426,0\C,129,1.41697,128,109.586,115,-138.08,0\C,131,1.37592,129,120.247,128,138.298,0\C,132,1.372,131,123.545,129,6.50383,0\C,132,1.38134,131,119.355,129,-143.339,0\C,134,1.37342,132,123.109,131,4.68199,0\C,133,1.40617,132,108.771,131,-152.457,0\C,131,1.41204,129,107.928,128,-3.0972,0\C,135,1.41226,134,119.124,132,134.332,0\C,138,1.38133,135,119.35,134,3.08429,0\C,136,1.41291,133,105.731,132,2.28574,0\C,140,1.40222,136,119.694,133,140.888,0\C,141,1.41555,140,124.069,136,2.90195,0\C,136,1.41695,133,117.94,132,139.736,0\C,137,1.41737,131,106.931,129,1.67348,0\C,135,1.41801,134,119.644,132,-0.855717,0\C,126,1.42154,125,107.641,124,-3.38068,0\C,146,1.3894,126,117.064,125,138.787,0\C,143,1.44377,136,118.437,133,-142.998,0\C,142,1.52806,141,123.867,140,70.2646,0\C,149,1.46982,142,118.867,141,141.095,0\C,150,1.38257,149,120.505,142,-62.8647,0\H,151,1.08617,150,122.532,149,4.63306,0\C,151,1.36855,150,121.684,149,177.616,0\H,153,1.08571,151,124.189,150,177.45,0\C,153,1.39471,151,119.724,150,-0.414853,0\H,155,1.08631,153,115.618,151,177.668,0\C,150,1.41311,149,118.517,142,116.107,0\H,157,1.08568,150,118.894,149,5.65186,0\C,157,1.39925,150,117.8,149,-176.951,0\H,159,1.08591,157,121.154,150,-177.237,0\C,149,1.553,142,122.239,141,1.73251,0\H,161,1.09655,149,115.784,142,-26.1871,0\H,161,1.09737,149,103.093,142,89.4505,0\C,161,1.58252,149,115.979,142,-155.605,0\H,164,1.09679,161,114.919,149,-48.016,0\H,164,1.09685,161,104.122,149,-162.944,0\C,164,1.55297,161,114.521,149,75.7835,0\H,167,1.09656,164,111.883,161,-58.7969,0\H,167,1.09694,164,115.231,161,55.3097,0\C,167,1.47969,164,111.545,161,175.499,0\O,170,1.22409,167,126.518,164,15.9294,0\O,170,1.38298,167,109.05,164,-157.322,0\C,172,1.44258,170,123.01,167,172.705,0\H,173,1.09649,172,110.5,170,-72.0466,0\H,173,1.0968,172,116.063,170,48.2114,0\H,173,1.09697,172,110.002,170,170.063,0\\\@

 Total job time:  846.08s(wall), 7142.79s(cpu) 
 Sun Oct  7 09:07:34 2018

        *************************************************************
        *                                                           *
        *  Thank you very much for using Q-Chem.  Have a nice day.  *
        *                                                           *
        *************************************************************


