
Running Job 1 of 1 ./8/27.qcin
qchem ./8/27.qcin_9405.0 /tmpu/cab_g/afmv_a/scratch_qchem/qchem9405/ 1
/tmpu/appuserlic/qchem4.4/serial-multicore/exe/qcprog.exe_s ./8/27.qcin_9405.0 /tmpu/cab_g/afmv_a/scratch_qchem/qchem9405/
Check license passed

                  Welcome to Q-Chem
     A Quantum Leap Into The Future Of Chemistry


 Q-Chem 4.4, Q-Chem, Inc., Pleasanton, CA (2016)

 Y. Shao,  Z. Gan,  E. Epifanovsky,  A. T. B. Gilbert,  M. Wormit,  
 J. Kussmann,  A. W. Lange,  A. Behn,  J. Deng,  X. Feng,  D. Ghosh,  
 M. Goldey,  P. R. Horn,  L. D. Jacobson,  I. Kaliman,  F. Rob,  
 R. Z. Khaliullin,  T. Kus,  A. Landau,  J. Liu,  E. I. Proynov,  Y. M. Rhee,  
 R. M. Richard,  M. A. Rohrdanz,  R. P. Steele,  E. J. Sundstrom,  
 H. L. Woodcock III,  P. M. Zimmerman,  D. Zuev,  B. Albrecht,  E. Alguire,  
 B. Austin,  S. A. Baeppler,  G. J. O. Beran,  Y. A. Bernard,  E. Berquist,  
 K. Brandhorst,  K. B. Bravaya,  S. T. Brown,  D. Casanova,  C.-M. Chang,  
 Y. Chen,  S. H. Chien,  K. D. Closser,  M. P. Coons,  D. L. Crittenden,  
 S. Dasgupta,  M. Diedenhofen,  R. A. DiStasio Jr.,  H. Do,  A. D. Dutoi,  
 R. G. Edgar,  P.-T. Fang,  S. Fatehi,  Q. Feng,  L. Fusti-Molnar,  
 A. Ghysels,  A. Golubeva-Zadorozhnaya,  J. Gomes,  A. Gunina,  
 M. W. D. Hanson-Heine,  P. H. P. Harbach,  A. W. Hauser,  J. E. Herr,  
 E. G. Hohenstein,  Z. C. Holden,  K. Hui,  T.-C. Jagau,  H. Ji,  B. Kaduk,  
 K. Khistyaev,  Jaehoon Kim,  Jihan Kim,  R. A. King,  P. Klunzinger,  
 K. Koh,  D. Kosenkov,  T. Kowalczyk,  C. M. Krauter,  A. Kunitsa,  
 K. U. Lao,  A. Laurent,  K. V. Lawler,  J. Lee,  D. Lefrancois,  S. Lehtola,  
 S. V. Levchenko,  C. Y. Lin,  Y.-S. Lin,  F. Liu,  E. Livshits,  
 R. C. Lochan,  A. Luenser,  P. Manohar,  S. F. Manzer,  S.-P. Mao,  Y. Mao,  
 N. Mardirossian,  A. V. Marenich,  L. A. Martinez-Martinez,  S. A. Maurer,  
 N. J. Mayhall,  J.-M. Mewes,  A. F. Morrison,  K. Nanda,  T. S. Nguyen-Beck,  
 C. M. Oana,  R. Olivares-Amaya,  D. P. O'Neill,  J. A. Parkhill,  
 T. M. Perrine,  R. Peverati,  P. A. Pieniazek,  F. Plasser,  A. Prociuk,  
 D. R. Rehn,  E. Rosta,  N. J. Russ,  N. Sergueev,  S. M. Sharada,  
 S. Sharma,  D. W. Small,  A. Sodt,  T. Stauch,  T. Stein,  D. Stuck,  
 Y.-C. Su,  A. J. W. Thom,  T. Tsuchimochi,  L. Vogt,  O. Vydrov,  T. Wang,  
 M. A. Watson,  J. Wenzel,  A. White,  C. F. Williams,  V. Vanovschi,  
 K. Yao,  S. Yeganeh,  S. R. Yost,  Z.-Q. You,  I. Y. Zhang,  X. Zhang,  
 Y. Zhao,  B. R. Brooks,  G. K. L. Chan,  D. M. Chipman,  C. J. Cramer,  
 W. A. Goddard III,  M. S. Gordon,  W. J. Hehre,  A. Klamt,  
 H. F. Schaefer III,  M. W. Schmidt,  C. D. Sherrill,  D. G. Truhlar,  
 A. Warshel,  X. Xu,  A. Aspuru-Guzik,  R. Baer,  A. T. Bell,  N. A. Besley,  
 J.-D. Chai,  A. Dreuw,  B. D. Dunietz,  T. R. Furlani,  S. R. Gwaltney,  
 C.-P. Hsu,  Y. Jung,  J. Kong,  D. S. Lambrecht,  W. Liang,  C. Ochsenfeld,  
 V. A. Rassolov,  L. V. Slipchenko,  J. E. Subotnik,  T. Van Voorhis,  
 J. M. Herbert,  A. I. Krylov,  P. M. W. Gill,  M. Head-Gordon

 Contributors to earlier versions of Q-Chem not listed above: 
 R. D. Adamson,  J. Baker,  E. F. C. Byrd,  A. K. Chakraborty,  C.-L. Cheng,  
 H. Dachsel,  R. J. Doerksen,  G. Hawkins,  A. Heyden,  S. Hirata,  
 G. Kedziora,  F. J. Keil,  C. Kelley,  P. P. Korambath,  W. Kurlancheek,  
 A. M. Lee,  M. S. Lee,  D. Liotard,  I. Lotan,  P. E. Maslen,  N. Nair,  
 D. Neuhauser,  R. Olson,  B. Peters,  J. Ritchie,  N. E. Schultz,  
 N. Shenvi,  A. C. Simmonett,  K. S. Thanthiriwatte,  Q. Wu,  W. Zhang

 Please cite Q-Chem as follows:
 Y. Shao et al., Mol. Phys. 113, 184-215 (2015)
 DOI: 10.1080/00268976.2014.952696

 Q-Chem 4.4.2 for Intel X86 Linux

 Parts of Q-Chem use Armadillo 5.200.1 (Boston Tea Smuggler).
 http://arma.sourceforge.net/

 Q-Chem begins on Sun Oct  7 09:36:28 2018  

Host: 
0

     Scratch files written to /tmpu/cab_g/afmv_a/scratch_qchem/qchem9405//
 Dec716 11556_ 22328  22283 4050   
Processing $rem in /tmpu/appuserlic/qchem4.4/serial-multicore/config/preferences.
 MEM_TOTAL  2000 
FILE_GEOM_ORG=        593

Checking the input file for inconsistencies... 	...done.

--------------------------------------------------------------
User input:
--------------------------------------------------------------
$comment
SP
$end

$rem
MEM_STATIC 5000
MEM_TOTAL 20000
JOBTYPE SP
EXCHANGE B3LYP
BASIS 6-31g(d,p)
$end

$molecule
0 1
O          27.790000     -4.823000      0.418000
C          28.242000     -5.072000      1.761000
H          28.850000     -5.975000      1.893000
H          27.384000     -5.214000      2.429000
H          28.792000     -4.189000      2.110000
O          29.761000     -5.613000     -0.584000
C          28.655000     -5.108000     -0.664000
C          27.904000     -4.770000     -1.930000
H          27.909000     -3.673000     -1.915000
H          26.896000     -5.202000     -1.920000
C          28.576000     -5.236000     -3.295000
H          29.589000     -4.863000     -3.491000
H          28.713000     -6.324000     -3.323000
C          27.730000     -4.755000     -4.497000
H          26.779000     -5.299000     -4.441000
H          27.481000     -3.693000     -4.380000
C          28.270000     -4.958000     -5.897000
C          29.669000     -4.355000     -6.016000
C          30.832000     -5.141000     -5.880000
H          30.809000     -6.215000     -5.719000
C          32.096000     -4.520000     -5.741000
H          32.925000     -5.197000     -5.559000
C          32.215000     -3.139000     -5.881000
H          33.177000     -2.639000     -5.818000
C          31.028000     -2.355000     -5.844000
H          31.179000     -1.288000     -5.982000
C          29.795000     -2.970000     -5.957000
H          28.870000     -2.401000     -5.942000
C          27.286000     -4.815000    -11.244000
C          28.924000     -6.586000    -11.032000
C          26.133000    -10.022000    -12.007000
C          23.266000     -5.604000     -8.223000
C          25.594000    -10.815000     -8.662000
C          28.453000     -5.315000    -10.672000
C          23.012000     -8.389000     -8.092000
C          26.304000     -7.780000    -13.001000
C          28.702000     -8.400000     -7.487000
C          23.766000     -6.295000     -7.069000
C          27.956000     -6.295000     -6.618000
C          27.573000     -8.638000     -6.670000
C          24.829000     -8.192000     -6.516000
C          23.489000     -9.618000     -8.471000
C          29.150000     -6.407000     -8.844000
C          24.291000    -10.341000    -10.666000
C          27.297000     -5.051000     -7.070000
C          25.814000     -4.960000     -7.082000
C          25.459000    -10.835000    -10.080000
C          23.273000     -6.608000    -11.669000
C          24.113000     -8.629000    -12.276000
C          24.931000     -7.668000    -12.853000
C          27.169000     -6.711000    -12.726000
C          25.371000     -4.314000     -8.237000
C          28.826000     -6.979000     -7.593000
C          28.302000     -7.285000    -12.113000
C          23.663000     -7.679000     -7.067000
C          29.345000     -7.277000     -9.926000
C          26.681000     -9.649000     -6.992000
C          23.911000     -4.760000    -10.231000
C          26.960000     -8.987000    -12.593000
C          27.055000     -7.385000     -6.159000
C          25.272000     -5.268000    -12.204000
C          25.302000     -9.407000     -6.928000
C          28.916000     -9.210000     -8.638000
C          22.646000     -8.568000    -10.330000
C          22.441000     -7.733000     -9.170000
C          27.994000    -10.291000     -8.943000
C          24.102000     -4.668000     -8.818000
C          25.045000     -5.976000     -6.461000
C          23.092000     -5.816000    -10.514000
C          27.618000     -4.517000     -8.499000
C          28.583000     -9.376000    -10.900000
C          25.655000     -7.153000     -6.069000
C          26.859000    -10.462000     -8.127000
C          25.003000     -4.518000    -11.050000
C          26.573000    -10.743000    -10.909000
C          26.647000     -5.491000    -12.234000
C          24.666000     -9.838000    -11.911000
C          29.186000     -8.661000     -9.876000
C          27.858000    -10.393000    -10.344000
C          28.567000     -5.230000     -9.291000
C          26.459000     -4.008000     -9.114000
C          23.073000     -7.990000    -11.567000
C          28.193000     -8.681000    -12.075000
C          24.611000    -10.176000     -7.872000
C          22.730000     -6.360000     -9.258000
C          23.304000     -9.734000     -9.815000
C          26.269000     -4.209000    -10.499000
C          24.419000     -6.351000    -12.463000
O          12.834000     -9.809000     -5.643000
C          11.404000     -9.637000     -5.724000
H          11.113000     -9.309000     -6.729000
H          10.967000     -8.904000     -5.035000
H          10.900000    -10.594000     -5.541000
O          13.384000     -7.572000     -5.674000
C          13.721000     -8.748000     -5.631000
C          15.102000     -9.272000     -5.719000
H          15.029000    -10.190000     -6.315000
H          15.439000     -9.681000     -4.759000
C          16.084000     -8.202000     -6.269000
H          15.767000     -7.852000     -7.259000
H          15.998000     -7.331000     -5.608000
C          17.561000     -8.722000     -6.498000
H          17.533000     -9.581000     -7.179000
H          18.078000     -7.918000     -7.037000
C          18.425000     -8.901000     -5.220000
C          18.548000     -7.586000     -4.575000
C          17.703000     -7.289000     -3.482000
H          16.928000     -7.999000     -3.210000
C          17.877000     -6.059000     -2.838000
H          17.229000     -5.756000     -2.021000
C          18.871000     -5.130000     -3.299000
H          19.032000     -4.137000     -2.889000
C          19.654000     -5.460000     -4.405000
H          20.349000     -4.697000     -4.742000
C          19.486000     -6.672000     -5.018000
H          20.208000     -6.906000     -5.795000
C          23.162000    -10.718000     -3.158000
C          21.627000    -10.968000     -1.305000
C          21.396000    -15.493000     -1.472000
C          21.314000    -13.023000     -7.290000
C          18.286000    -15.647000     -3.113000
C          22.079000    -10.306000     -2.415000
C          19.819000    -15.232000     -6.412000
C          23.361000    -13.998000     -1.736000
C          17.881000    -11.592000     -2.535000
C          19.949000    -12.972000     -7.147000
C          18.387000    -10.272000     -4.489000
C          17.383000    -12.240000     -3.651000
C          18.096000    -13.584000     -5.991000
C          19.411000    -16.021000     -5.308000
C          19.795000    -10.128000     -2.320000
C          20.563000    -16.552000     -3.271000
C          19.611000     -9.863000     -5.166000
C          20.004000    -10.692000     -6.244000
C          19.437000    -16.129000     -2.502000
C          23.562000    -14.615000     -5.157000
C          22.820000    -15.822000     -3.356000
C          23.652000    -14.748000     -2.876000
C          23.403000    -12.602000     -1.693000
C          21.465000    -10.824000     -6.312000
C          18.561000    -10.435000     -2.969000
C          22.280000    -12.159000     -0.940000
C          19.200000    -14.031000     -6.672000
C          20.248000    -10.896000     -1.273000
C          17.299000    -13.623000     -3.682000
C          23.294000    -12.410000     -6.201000
C          22.200000    -14.397000     -0.995000
C          17.705000    -11.498000     -4.830000
C          24.227000    -12.576000     -3.959000
C          17.686000    -14.307000     -4.834000
C          18.271000    -12.326000     -1.448000
C          21.666000    -16.130000     -5.437000
C          21.225000    -15.317000     -6.511000
C          18.244000    -13.761000     -1.471000
C          22.094000    -11.938000     -6.833000
C          19.270000    -11.800000     -6.691000
C          23.201000    -13.842000     -6.277000
C          20.923000     -9.597000     -4.418000
C          20.137000    -13.217000     -0.506000
C          18.090000    -12.178000     -6.012000
C          17.688000    -14.438000     -2.609000
C          23.808000    -11.810000     -5.052000
C          20.019000    -15.406000     -1.424000
C          23.885000    -11.875000     -2.799000
C          21.710000    -16.216000     -2.586000
C          19.503000    -12.036000     -0.847000
C          19.375000    -14.307000     -0.886000
C          20.915000     -9.664000     -3.040000
C          21.999000    -10.141000     -5.180000
C          22.866000    -15.769000     -4.729000
C          21.571000    -13.223000     -0.638000
C          18.319000    -15.495000     -4.526000
C          22.010000    -14.213000     -6.958000
C          20.518000    -16.537000     -4.676000
C          23.084000    -10.666000     -4.556000
C          24.050000    -13.995000     -4.014000
$end

--------------------------------------------------------------
 ----------------------------------------------------------------
             Standard Nuclear Orientation (Angstroms)
    I     Atom           X                Y                Z
 ----------------------------------------------------------------
    1      O       3.4221278189    -7.8095728319     3.4790232518
    2      C       3.1226828293    -9.2156092059     3.4211577771
    3      H       3.0420552825    -9.6383811746     2.4125646673
    4      H       2.1492184501    -9.4147606453     3.8851166187
    5      H       3.8829520937    -9.7551299483     3.9998615132
    6      O       4.8544040035    -7.8545044770     1.6190471557
    7      C       4.3255031533    -7.2584052270     2.5407795327
    8      C       4.4191821391    -5.7799230758     2.8345749993
    9      H       5.0107086932    -5.7655865179     3.7584525880
   10      H       3.4233307054    -5.3344768463     2.9470275607
   11      C       5.1858169183    -4.8936434818     1.7581250020
   12      H       6.2234326142    -5.1781694598     1.5433864736
   13      H       4.7108848926    -4.9618740485     0.7716762396
   14      C       5.2613146031    -3.4240501522     2.2340205212
   15      H       4.2304735844    -3.0487853177     2.2380327730
   16      H       5.6044595846    -3.3836166723     3.2752460757
   17      C       6.0840556171    -2.4385363528     1.4311078392
   18      C       7.5075642460    -2.9635125822     1.2494649421
   19      C       7.9062989000    -3.6432685451     0.0799336229
   20      H       7.2475124302    -3.8046342461    -0.7685282193
   21      C       9.1409894997    -4.3339820551     0.0465874071
   22      H       9.3300960272    -4.8970885420    -0.8621720802
   23      C      10.0301778747    -4.2272386192     1.1137668075
   24      H      11.0007620936    -4.7142546743     1.0998156037
   25      C       9.5472733456    -3.6897610102     2.3397011595
   26      H      10.2899335684    -3.6081574498     3.1284537522
   27      C       8.3293790537    -3.0362606786     2.3705849787
   28      H       7.9355700905    -2.6063029446     3.2869156218
   29      C       7.4309922531     2.7591521599     0.5657120779
   30      C       7.6257253396     1.7655154175    -1.6341047439
   31      C       4.0336613246     3.8263860088    -3.4770074862
   32      C       2.8439940811     1.9191044467     2.6060869477
   33      C       1.9417789766     1.0894664847    -2.9853828731
   34      C       7.8235509531     1.6989475474    -0.2472681474
   35      C       1.0971466820     1.8444395758     0.4195711528
   36      C       5.7487353000     4.6894435335    -1.9415941972
   37      C       5.1448786066    -1.3231032581    -2.0953413032
   38      C       2.4126166427     0.6463099564     2.1029918363
   39      C       5.3956017471    -1.6908487315     0.2593568035
   40      C       3.8595778437    -1.5316157265    -1.5446158732
   41      C       1.9783859464    -0.3870969466     0.1593095384
   42      C       0.9336966750     1.9262181845    -0.9399167487
   43      C       7.0701240760    -0.2732181262    -0.9974464575
   44      C       1.9711192334     3.4809590682    -2.5180464075
   45      C       5.7426032986    -0.9515865648     1.4919160808
   46      C       4.6805439754    -0.2527272654     2.2609022143
   47      C       2.3624133244     2.4080483123    -3.3226627410
   48      C       3.6015146533     4.9424839168     0.8261093742
   49      C       3.3684688443     5.0368587630    -1.4311617747
   50      C       4.7206545636     5.1962118033    -1.1632543485
   51      C       6.8744375895     4.0749258999    -1.3743434295
   52      C       5.1308415988     0.9933683638     2.6991575430
   53      C       6.0466856508    -1.2477125636    -0.9876801194
   54      C       7.1859741148     2.9920868241    -2.2224817020
   55      C       1.5857178684     0.6543888302     0.9884326638
   56      C       7.1529522416     0.5717906323    -2.1131295187
   57      C       2.7626023892    -0.8613763885    -2.0631648893
   58      C       4.5406395426     3.4234842181     2.4694828428
   59      C       5.4360306693     3.9915735088    -3.1535522174
   60      C       3.9555434726    -1.7107659295    -0.1099905553
   61      C       6.0314991371     4.5288637181     0.8699242067
   62      C       1.8319041231    -0.2738403325    -1.1954649870
   63      C       5.3003952240    -0.4240911280    -3.1881765019
   64      C       1.5662082698     3.9922217784    -0.1649404700
   65      C       1.4276033852     3.0817541518     0.9471240007
   66      C       4.1365924787     0.2430433410    -3.7468935774
   67      C       4.2029657059     2.0854044173     2.8396622949
   68      C       3.3189345071    -0.4752341924     1.9356817918
   69      C       3.4595865337     4.0241762501     1.8894143342
   70      C       6.8101392506     0.1810105141     1.4034353040
   71      C       5.8103394115     1.7300566966    -3.7837376453
   72      C       2.9938622905    -1.1368349231     0.7661923617
   73      C       2.8833957592     0.0400202758    -3.1373022248
   74      C       5.8010173900     3.6509871985     1.9389368262
   75      C       3.5619628628     2.6301467716    -3.9923299564
   76      C       6.9566849733     3.9135633389     0.0292752836
   77      C       2.9933498204     4.4246702206    -2.6081179788
   78      C       6.2658764207     0.5632239166    -3.1884248732
   79      C       4.5057276663     1.5447831380    -4.1480340943
   80      C       7.4361853147     0.4246415743     0.1444896213
   81      C       6.4446317527     1.2758703560     2.2085894481
   82      C       2.6651259087     4.9068451851    -0.2141953887
   83      C       6.3345374190     2.9707075381    -3.3345695938
   84      C       1.2508744230     0.8613097448    -1.7732337900
   85      C       2.4208238881     3.0635860439     1.9418988256
   86      C       1.2369653951     3.1997172026    -1.3144101855
   87      C       6.7135711328     2.5856976080     1.7538915485
   88      C       4.9012380814     5.1232704026     0.2896056397
   89      O      -8.2493855677     4.3415688017     4.6636688818
   90      C      -9.2018155797     5.0792830331     5.4572051350
   91      H      -8.8655561375     6.1134763895     5.5974324113
   92      H      -9.3931014334     4.6907324598     6.4648842378
   93      H     -10.1674825146     5.1240281105     4.9387080290
   94      O      -6.6138516525     4.1757804266     6.2777237219
   95      C      -7.0125965416     3.9497439466     5.1426889105
   96      C      -6.2239149052     3.3748559925     4.0304991261
   97      H      -6.5513793686     3.9117601537     3.1317388985
   98      H      -6.5524644470     2.3570626083     3.7884209865
   99      C      -4.6995247912     3.4374216474     4.3204031090
  100      H      -4.3765654768     4.4709441486     4.4953817387
  101      H      -4.5415477151     2.9151500690     5.2718407800
  102      C      -3.7834480932     2.9432137501     3.1283745701
  103      H      -4.0131884923     3.5362515785     2.2350932689
  104      H      -2.7569424994     3.2037866450     3.4158011385
  105      C      -3.7106094694     1.4061851556     2.9184730820
  106      C      -3.1491943133     0.8135706730     4.1407660492
  107      C      -4.0351655440     0.2437338293     5.0826917097
  108      H      -5.1045749910     0.3416550186     4.9230550115
  109      C      -3.4809818507    -0.3738968987     6.2093348288
  110      H      -4.1117382694    -0.7900577272     6.9891800090
  111      C      -2.0572896218    -0.3996049311     6.3991703749
  112      H      -1.5531275189    -0.8103106173     7.2693493296
  113      C      -1.2309306783     0.2095212997     5.4550723229
  114      H      -0.1686095579     0.2076451005     5.6792002259
  115      C      -1.7825161310     0.7973951535     4.3491361492
  116      H      -1.0737944559     1.1457716242     3.6034040110
  117      C      -1.9045157379    -2.6612513407    -0.2731546815
  118      C      -3.8912102414    -3.6005124070     0.7383627919
  119      C      -6.4499573434    -3.4692026033    -3.0022850134
  120      C      -2.9885655815     1.7923393026    -2.4621999798
  121      C      -8.2563438365    -0.5810018000    -2.1168693162
  122      C      -2.7757837570    -2.8077101131     0.7823659800
  123      C      -5.6383493326     1.6452063279    -3.3801258811
  124      C      -4.0635783816    -4.1030444506    -2.7388728586
  125      C      -6.5848501337    -0.7953022555     1.6383028658
  126      C      -4.0417445869     2.2981746406    -1.7402445841
  127      C      -4.7556015887     0.7384859864     1.9816618471
  128      C      -6.8905608948     0.4063422537     1.0251508422
  129      C      -6.2015147981     2.1137931466    -1.0724983003
  130      C      -6.7871136850     0.8339094697    -3.5531544065
  131      C      -4.4336679281    -1.8309219198     2.0292300065
  132      C      -6.9733027433    -1.5185626603    -3.9886340413
  133      C      -3.3589502075     0.7836626637     1.5680074177
  134      C      -3.1064741000     1.5346901338     0.3949824587
  135      C      -7.8807466823    -1.6678804741    -2.8966561624
  136      C      -2.9601506314    -1.1809639538    -4.2777762896
  137      C      -4.8483252806    -2.4669449192    -4.4568389898
  138      C      -3.8218066404    -3.2477482609    -3.8144173035
  139      C      -3.2929997155    -4.1224706206    -1.5734286758
  140      C      -2.0530736317     0.9157846315    -0.4198012136
  141      C      -5.2842251464    -0.6935219907     2.1744189168
  142      C      -4.1813534362    -4.2584497298    -0.4703763883
  143      C      -5.3566850008     2.1946386369    -2.1505115750
  144      C      -4.9018382659    -2.9892564309     1.4544955503
  145      C      -7.6902186299     0.4349090818    -0.1064133154
  146      C      -1.5765955738    -0.0716098196    -2.5810459610
  147      C      -5.4314774180    -4.2337994845    -2.3290456423
  148      C      -5.8037334780     1.3225915415     1.1787164921
  149      C      -1.8071771517    -2.4945349940    -2.5514700371
  150      C      -7.3360050592     1.2582512512    -1.1747622370
  151      C      -7.0970653444    -1.9590275229     1.1325320879
  152      C      -5.1009438962    -0.0974532356    -4.7376129134
  153      C      -4.5892536143     1.0804894994    -4.1379880570
  154      C      -7.8849725199    -1.9653268761    -0.0673202368
  155      C      -1.9865752921     1.0562648155    -1.7923613357
  156      C      -4.0900548773     2.2400038949    -0.3130643992
  157      C      -2.3926150374    -0.0003375407    -3.7617582449
  158      C      -2.5090988401    -0.4786624435     1.3785556376
  159      C      -6.5291732731    -3.6810353637    -0.2369161921
  160      C      -5.4375839680     2.1735552150     0.1065484257
  161      C      -8.2417391791    -0.7181571474    -0.6835947037
  162      C      -1.2972160209    -1.3112091655    -2.0068181953
  163      C      -7.4569809920    -2.8726420204    -2.2701505709
  164      C      -2.1213444961    -3.3453111977    -1.4877765987
  165      C      -6.1860488325    -2.6468471957    -4.0588856388
  166      C      -6.2391655784    -3.0534266234     0.9609989994
  167      C      -7.5492694715    -3.0216618758    -0.8985613761
  168      C      -3.0693501704    -1.6980455595     1.6989620411
  169      C      -1.7073585679    -0.3157310053     0.2102141283
  170      C      -4.2689356695    -1.2699464160    -4.8054881857
  171      C      -5.4038722568    -4.2272968564    -0.9504370427
  172      C      -7.6181469843     0.6601601243    -2.3870245593
  173      C      -3.2334103673     1.1437923136    -3.6992035505
  174      C      -6.4709073113    -0.2521628541    -4.3351962448
  175      C      -1.4095659799    -1.3847861566    -0.5712375068
  176      C      -2.6872591787    -2.4026774781    -3.6761623605
 ----------------------------------------------------------------
 Molecular Point Group                 C1    NOp =  1
 Largest Abelian Subgroup              C1    NOp =  1
 Nuclear Repulsion Energy = 34696.2591406498 hartrees
 There are      462 alpha and      462 beta electrons
 Requested basis set is 6-31G(d,p)
 There are 676 shells and 2360 basis functions

 Total QAlloc Memory Limit  20000 MB
 Mega-Array Size      4888 MB
 MEM_STATIC part      5000 MB
 A cutoff of  1.0D-08 yielded  37143 shell pairs
 There are    525363 function pairs
 
 -------------------------------------------------------
 OpenMP Integral Computing Module                       
 Release: version 1.0, May 2013, Q-Chem Inc. Pittsburgh 
 -------------------------------------------------------
 Integral Job Info:
 Integral job number is                      11
 Integral operator is                         1
 short-range coefficients                     0
 long-range coefficients              100000000
 Omega coefficients                           0
 if combine SR and LR in K                    0
 Integral screening is                        0
 Integral computing path is                   2
 max size of driver memory is            800000
 size of driver memory is                593474
 size of scratch memory is              2260544
 max col of scratch BK array               1296
 max len of scratch array in speh3          155
 max len of scratch index in speh4           18
 max int batch size is                      520
 min int batch size is                       52
 fixed nKL is                                52
 max L of basis functions is                  2
 order of int derivative is                   0
 number of shells is                        676
 number of basis is                        2360
 number of cartesian basis is              2360
 number of contracted shell pairs         37143
 number of primitive shell pairs         112897
 maxK2 (contraction) of shell pair           36
 max number of K2 of shell pair               1
 max number of CS2 of shell pair           7167
 max number of PS2 of shell pair          34470
 mem total for path MDJ                 1496968
 -------------------------------------------------------
 Smallest overlap matrix eigenvalue = 2.44E-04

 Scale SEOQF with 1.000000e-02/1.000000e-02/1.000000e-02

 Standard Electronic Orientation quadrupole field applied
 Nucleus-field energy     =     0.0000000794 hartrees
 Guess from superposition of atomic densities
 Warning:  Energy on first SCF cycle will be non-variational
 A restricted hybrid HF-DFT SCF calculation will be
 performed using Pulay DIIS extrapolation
 Exchange:     0.2000 Hartree-Fock + 0.0800 Slater + 0.7200 B88
 Correlation:  0.1900 VWN1RPA + 0.8100 LYP
 Using SG-1 standard quadrature grid
 SCF converges when DIIS error is below 1.0E-05
 using 16 threads for integral computing 
 -------------------------------------------------------
 OpenMP BLAS3 based DFT computing Module                
 Release: version 1.0, May 2013, Q-Chem Inc. Pittsburgh 
 -------------------------------------------------------
 ---------------------------------------
  Cycle       Energy         DIIS Error
 ---------------------------------------
    1   -5858.3973300182      1.83E-02
    2   -5803.1361231938      1.29E-03
    3   -5802.3070753824      1.81E-03
    4   -5803.9887192670      6.51E-04
    5   -5804.2251109544      2.87E-04
    6   -5804.2776506443      1.25E-04
    7   -5804.2878791567      4.47E-05
    8   -5804.2887836332      2.74E-05
    9   -5804.2893424244      8.50E-06 Convergence criterion met
 ---------------------------------------
 SCF time:  CPU 7195.49 s  wall 834.67 s
 SCF   energy in the final basis set = -5804.2893424244
 Total energy in the final basis set = -5804.2893424244
 
 --------------------------------------------------------------
 
                    Orbital Energies (a.u.)
 --------------------------------------------------------------
 
 Alpha MOs
 -- Occupied --
-19.189 -19.188 -19.147 -19.138 -10.324 -10.318 -10.245 -10.242
-10.242 -10.242 -10.238 -10.236 -10.235 -10.233 -10.232 -10.232
-10.231 -10.229 -10.228 -10.228 -10.228 -10.226 -10.225 -10.224
-10.224 -10.224 -10.223 -10.223 -10.222 -10.222 -10.221 -10.221
-10.221 -10.221 -10.221 -10.220 -10.220 -10.220 -10.220 -10.219
-10.219 -10.219 -10.219 -10.219 -10.218 -10.218 -10.218 -10.218
-10.218 -10.217 -10.217 -10.217 -10.217 -10.217 -10.217 -10.217
-10.217 -10.217 -10.217 -10.217 -10.217 -10.217 -10.216 -10.216
-10.216 -10.216 -10.216 -10.216 -10.216 -10.216 -10.216 -10.216
-10.215 -10.215 -10.215 -10.215 -10.215 -10.215 -10.215 -10.215
-10.215 -10.215 -10.214 -10.214 -10.214 -10.214 -10.214 -10.213
-10.213 -10.213 -10.213 -10.213 -10.212 -10.212 -10.212 -10.212
-10.212 -10.212 -10.212 -10.212 -10.212 -10.212 -10.212 -10.212
-10.211 -10.211 -10.211 -10.211 -10.210 -10.210 -10.210 -10.210
-10.209 -10.209 -10.209 -10.209 -10.208 -10.208 -10.208 -10.208
-10.208 -10.207 -10.207 -10.207 -10.207 -10.207 -10.206 -10.206
-10.206 -10.205 -10.205 -10.205 -10.204 -10.204 -10.202 -10.202
-10.202 -10.201 -10.201 -10.200 -10.200 -10.199 -10.198 -10.198
-10.197 -10.197 -10.194 -10.193  -1.084  -1.081  -1.013  -1.007
 -0.984  -0.983  -0.967  -0.966  -0.963  -0.963  -0.962  -0.960
 -0.936  -0.934  -0.928  -0.927  -0.927  -0.925  -0.924  -0.922
 -0.921  -0.918  -0.900  -0.898  -0.892  -0.889  -0.884  -0.884
 -0.874  -0.873  -0.857  -0.855  -0.842  -0.840  -0.839  -0.839
 -0.837  -0.837  -0.822  -0.820  -0.803  -0.803  -0.798  -0.798
 -0.796  -0.795  -0.794  -0.794  -0.792  -0.791  -0.785  -0.783
 -0.771  -0.770  -0.769  -0.769  -0.769  -0.768  -0.767  -0.766
 -0.754  -0.751  -0.744  -0.742  -0.736  -0.734  -0.718  -0.716
 -0.715  -0.715  -0.712  -0.711  -0.711  -0.710  -0.709  -0.709
 -0.709  -0.708  -0.705  -0.705  -0.703  -0.700  -0.673  -0.673
 -0.661  -0.660  -0.659  -0.657  -0.650  -0.648  -0.632  -0.631
 -0.629  -0.627  -0.626  -0.625  -0.624  -0.622  -0.618  -0.616
 -0.616  -0.613  -0.613  -0.613  -0.612  -0.611  -0.610  -0.609
 -0.608  -0.606  -0.603  -0.603  -0.567  -0.566  -0.563  -0.561
 -0.561  -0.559  -0.559  -0.557  -0.557  -0.556  -0.554  -0.553
 -0.538  -0.538  -0.537  -0.533  -0.531  -0.527  -0.527  -0.524
 -0.521  -0.520  -0.519  -0.518  -0.516  -0.515  -0.514  -0.513
 -0.508  -0.505  -0.502  -0.498  -0.491  -0.491  -0.489  -0.487
 -0.486  -0.484  -0.481  -0.481  -0.480  -0.479  -0.474  -0.474
 -0.473  -0.472  -0.471  -0.470  -0.469  -0.468  -0.468  -0.467
 -0.466  -0.464  -0.464  -0.463  -0.463  -0.462  -0.459  -0.458
 -0.456  -0.455  -0.454  -0.453  -0.450  -0.445  -0.443  -0.443
 -0.441  -0.440  -0.440  -0.439  -0.438  -0.437  -0.433  -0.432
 -0.431  -0.430  -0.429  -0.428  -0.427  -0.426  -0.425  -0.424
 -0.424  -0.423  -0.422  -0.422  -0.421  -0.421  -0.421  -0.420
 -0.419  -0.418  -0.416  -0.416  -0.416  -0.415  -0.415  -0.414
 -0.413  -0.412  -0.412  -0.410  -0.403  -0.401  -0.400  -0.398
 -0.393  -0.392  -0.390  -0.389  -0.388  -0.387  -0.386  -0.381
 -0.379  -0.378  -0.371  -0.371  -0.371  -0.368  -0.367  -0.366
 -0.365  -0.364  -0.363  -0.363  -0.361  -0.360  -0.358  -0.358
 -0.358  -0.357  -0.355  -0.354  -0.353  -0.352  -0.351  -0.351
 -0.350  -0.349  -0.349  -0.347  -0.346  -0.345  -0.345  -0.345
 -0.344  -0.342  -0.342  -0.341  -0.340  -0.338  -0.337  -0.335
 -0.333  -0.332  -0.330  -0.330  -0.329  -0.328  -0.327  -0.323
 -0.307  -0.303  -0.298  -0.297  -0.292  -0.290  -0.276  -0.274
 -0.272  -0.271  -0.270  -0.268  -0.267  -0.267  -0.266  -0.264
 -0.263  -0.262  -0.260  -0.259  -0.258  -0.256  -0.256  -0.255
 -0.251  -0.248  -0.243  -0.241  -0.226  -0.221  -0.216  -0.213
 -0.210  -0.207  -0.205  -0.204  -0.202  -0.200
 -- Virtual --
 -0.126  -0.120  -0.120  -0.117  -0.110  -0.109  -0.079  -0.076
 -0.074  -0.072  -0.061  -0.058  -0.054  -0.053  -0.028  -0.024
 -0.022  -0.020  -0.020  -0.018  -0.018  -0.017  -0.015  -0.013
 -0.013  -0.011  -0.010  -0.007  -0.004  -0.003   0.001   0.002
  0.004   0.005   0.035   0.037   0.039   0.041   0.042   0.045
  0.049   0.050   0.054   0.054   0.059   0.061   0.063   0.065
  0.067   0.073   0.076   0.078   0.083   0.084   0.088   0.091
  0.094   0.096   0.099   0.100   0.104   0.105   0.107   0.109
  0.109   0.111   0.112   0.113   0.115   0.115   0.116   0.117
  0.118   0.119   0.131   0.131   0.133   0.134   0.135   0.136
  0.137   0.139   0.140   0.147   0.150   0.150   0.152   0.157
  0.158   0.158   0.159   0.161   0.166   0.166   0.168   0.171
  0.172   0.173   0.174   0.175   0.175   0.177   0.180   0.182
  0.183   0.184   0.186   0.188   0.189   0.189   0.193   0.193
  0.194   0.197   0.198   0.199   0.200   0.202   0.205   0.207
  0.209   0.210   0.210   0.211   0.213   0.215   0.217   0.219
  0.221   0.221   0.222   0.223   0.224   0.226   0.227   0.227
  0.228   0.229   0.230   0.232   0.233   0.235   0.237   0.239
  0.242   0.242   0.246   0.247   0.248   0.252   0.253   0.257
  0.261   0.263   0.266   0.268   0.271   0.274   0.278   0.279
  0.281   0.281   0.286   0.287   0.292   0.293   0.303   0.305
  0.307   0.309   0.312   0.312   0.314   0.316   0.316   0.318
  0.319   0.320   0.322   0.323   0.325   0.326   0.329   0.331
  0.333   0.337   0.340   0.343   0.343   0.344   0.346   0.348
  0.352   0.354   0.362   0.364   0.371   0.374   0.385   0.393
  0.394   0.394   0.399   0.403   0.403   0.404   0.407   0.408
  0.411   0.412   0.413   0.415   0.418   0.419   0.423   0.424
  0.428   0.431   0.433   0.436   0.438   0.440   0.446   0.446
  0.447   0.449   0.450   0.453   0.456   0.457   0.460   0.464
  0.467   0.468   0.470   0.472   0.473   0.474   0.476   0.477
  0.477   0.479   0.479   0.481   0.481   0.483   0.483   0.485
  0.486   0.487   0.488   0.489   0.490   0.493   0.494   0.495
  0.495   0.497   0.498   0.500   0.501   0.502   0.503   0.503
  0.504   0.505   0.506   0.507   0.507   0.510   0.510   0.511
  0.512   0.512   0.512   0.514   0.514   0.515   0.516   0.517
  0.518   0.519   0.521   0.521   0.522   0.523   0.524   0.525
  0.527   0.527   0.528   0.529   0.529   0.531   0.531   0.532
  0.533   0.533   0.534   0.535   0.536   0.537   0.537   0.538
  0.539   0.539   0.540   0.541   0.542   0.542   0.543   0.545
  0.545   0.547   0.548   0.548   0.549   0.550   0.550   0.551
  0.552   0.552   0.553   0.554   0.554   0.555   0.555   0.556
  0.557   0.558   0.559   0.560   0.561   0.562   0.562   0.563
  0.563   0.565   0.565   0.566   0.567   0.568   0.569   0.569
  0.571   0.571   0.571   0.573   0.574   0.575   0.575   0.576
  0.578   0.580   0.580   0.581   0.582   0.584   0.584   0.585
  0.586   0.586   0.587   0.588   0.588   0.589   0.590   0.591
  0.592   0.592   0.593   0.594   0.595   0.596   0.597   0.598
  0.599   0.600   0.602   0.603   0.603   0.604   0.606   0.608
  0.608   0.609   0.610   0.611   0.613   0.614   0.615   0.615
  0.616   0.617   0.618   0.620   0.621   0.621   0.624   0.625
  0.626   0.627   0.628   0.629   0.630   0.631   0.632   0.632
  0.633   0.634   0.636   0.636   0.637   0.638   0.638   0.639
  0.641   0.643   0.644   0.644   0.646   0.646   0.647   0.649
  0.649   0.651   0.651   0.653   0.654   0.655   0.656   0.657
  0.658   0.658   0.659   0.659   0.661   0.661   0.662   0.662
  0.663   0.664   0.664   0.665   0.666   0.667   0.667   0.668
  0.669   0.670   0.671   0.672   0.673   0.674   0.677   0.678
  0.679   0.680   0.682   0.683   0.684   0.685   0.687   0.688
  0.689   0.691   0.691   0.692   0.693   0.694   0.694   0.696
  0.697   0.698   0.699   0.701   0.701   0.702   0.704   0.705
  0.706   0.708   0.709   0.710   0.711   0.712   0.713   0.715
  0.716   0.716   0.717   0.719   0.720   0.721   0.723   0.723
  0.724   0.725   0.727   0.727   0.729   0.731   0.733   0.734
  0.735   0.736   0.738   0.739   0.740   0.740   0.742   0.743
  0.746   0.746   0.749   0.750   0.751   0.751   0.753   0.755
  0.755   0.757   0.759   0.761   0.762   0.762   0.764   0.766
  0.767   0.769   0.769   0.769   0.771   0.772   0.774   0.775
  0.777   0.778   0.779   0.782   0.782   0.785   0.786   0.787
  0.788   0.788   0.789   0.791   0.793   0.794   0.795   0.796
  0.797   0.798   0.800   0.801   0.802   0.802   0.805   0.805
  0.806   0.806   0.807   0.809   0.809   0.811   0.812   0.813
  0.814   0.814   0.814   0.815   0.816   0.816   0.817   0.818
  0.819   0.820   0.821   0.822   0.822   0.823   0.824   0.825
  0.825   0.827   0.827   0.828   0.829   0.831   0.833   0.834
  0.835   0.836   0.837   0.839   0.841   0.844   0.845   0.848
  0.853   0.855   0.857   0.861   0.864   0.865   0.867   0.870
  0.873   0.877   0.878   0.881   0.883   0.886   0.888   0.888
  0.890   0.895   0.895   0.899   0.900   0.902   0.902   0.906
  0.909   0.911   0.913   0.915   0.917   0.922   0.923   0.924
  0.928   0.928   0.929   0.931   0.932   0.933   0.934   0.936
  0.937   0.938   0.940   0.940   0.945   0.945   0.947   0.950
  0.952   0.952   0.955   0.958   0.959   0.968   0.968   0.970
  0.971   0.974   0.978   0.982   0.985   0.986   0.988   0.991
  0.993   0.995   0.996   1.000   1.000   1.003   1.003   1.004
  1.006   1.009   1.010   1.013   1.014   1.015   1.016   1.017
  1.018   1.021   1.022   1.023   1.024   1.026   1.027   1.030
  1.032   1.034   1.035   1.037   1.040   1.041   1.043   1.044
  1.044   1.047   1.047   1.048   1.050   1.051   1.053   1.055
  1.057   1.059   1.061   1.063   1.066   1.067   1.068   1.070
  1.071   1.074   1.074   1.077   1.079   1.080   1.082   1.084
  1.085   1.088   1.088   1.091   1.092   1.094   1.095   1.096
  1.096   1.100   1.101   1.102   1.104   1.106   1.107   1.108
  1.111   1.113   1.115   1.116   1.119   1.124   1.125   1.125
  1.126   1.132   1.133   1.136   1.139   1.140   1.142   1.145
  1.146   1.148   1.153   1.154   1.157   1.158   1.158   1.159
  1.161   1.164   1.164   1.166   1.168   1.168   1.170   1.170
  1.174   1.175   1.176   1.177   1.179   1.180   1.182   1.184
  1.185   1.186   1.189   1.190   1.192   1.194   1.197   1.199
  1.203   1.204   1.206   1.209   1.210   1.212   1.215   1.218
  1.223   1.224   1.228   1.232   1.236   1.238   1.244   1.246
  1.247   1.248   1.250   1.252   1.256   1.257   1.258   1.259
  1.263   1.265   1.267   1.269   1.271   1.273   1.274   1.277
  1.278   1.281   1.283   1.284   1.286   1.286   1.287   1.291
  1.292   1.296   1.297   1.300   1.303   1.303   1.307   1.311
  1.312   1.315   1.318   1.319   1.321   1.323   1.325   1.328
  1.335   1.338   1.340   1.342   1.344   1.351   1.352   1.352
  1.357   1.358   1.359   1.361   1.362   1.365   1.366   1.369
  1.371   1.372   1.373   1.375   1.379   1.382   1.383   1.386
  1.388   1.389   1.393   1.395   1.397   1.401   1.403   1.407
  1.409   1.412   1.414   1.416   1.422   1.424   1.425   1.427
  1.428   1.430   1.435   1.439   1.445   1.446   1.449   1.449
  1.451   1.454   1.455   1.459   1.460   1.462   1.463   1.466
  1.468   1.469   1.469   1.470   1.475   1.476   1.478   1.479
  1.480   1.483   1.484   1.485   1.487   1.491   1.493   1.497
  1.499   1.501   1.505   1.506   1.507   1.511   1.515   1.517
  1.521   1.522   1.525   1.530   1.532   1.536   1.539   1.541
  1.543   1.545   1.546   1.550   1.552   1.554   1.556   1.560
  1.561   1.563   1.565   1.566   1.567   1.568   1.569   1.570
  1.575   1.578   1.579   1.581   1.583   1.584   1.586   1.587
  1.593   1.595   1.596   1.602   1.603   1.609   1.612   1.616
  1.620   1.622   1.626   1.627   1.630   1.631   1.635   1.638
  1.641   1.645   1.650   1.651   1.655   1.658   1.662   1.667
  1.669   1.681   1.683   1.686   1.690   1.690   1.696   1.698
  1.701   1.702   1.704   1.705   1.706   1.713   1.713   1.715
  1.719   1.721   1.723   1.724   1.724   1.726   1.727   1.731
  1.731   1.734   1.735   1.736   1.739   1.741   1.744   1.746
  1.747   1.749   1.750   1.752   1.753   1.754   1.755   1.756
  1.758   1.759   1.760   1.761   1.763   1.766   1.766   1.769
  1.769   1.771   1.772   1.773   1.775   1.777   1.777   1.778
  1.780   1.781   1.782   1.783   1.785   1.785   1.788   1.789
  1.790   1.791   1.792   1.794   1.795   1.797   1.799   1.799
  1.802   1.804   1.804   1.805   1.807   1.808   1.810   1.813
  1.814   1.815   1.815   1.816   1.817   1.821   1.824   1.825
  1.826   1.828   1.831   1.831   1.832   1.836   1.837   1.838
  1.839   1.843   1.845   1.846   1.848   1.850   1.853   1.856
  1.857   1.858   1.862   1.863   1.864   1.865   1.868   1.870
  1.871   1.873   1.875   1.876   1.878   1.881   1.881   1.885
  1.885   1.886   1.887   1.888   1.891   1.894   1.897   1.898
  1.903   1.904   1.909   1.913   1.914   1.917   1.919   1.923
  1.925   1.926   1.926   1.927   1.930   1.931   1.934   1.935
  1.936   1.939   1.940   1.943   1.944   1.945   1.948   1.951
  1.953   1.954   1.957   1.958   1.964   1.965   1.966   1.968
  1.969   1.970   1.974   1.976   1.977   1.979   1.979   1.984
  1.985   1.987   1.989   1.990   1.990   1.993   1.993   1.994
  1.998   2.000   2.000   2.003   2.004   2.004   2.005   2.008
  2.009   2.011   2.012   2.014   2.014   2.015   2.016   2.017
  2.019   2.020   2.021   2.022   2.024   2.024   2.025   2.027
  2.028   2.028   2.029   2.029   2.031   2.033   2.034   2.034
  2.035   2.036   2.037   2.039   2.040   2.042   2.043   2.044
  2.046   2.046   2.049   2.050   2.051   2.052   2.052   2.053
  2.054   2.056   2.058   2.059   2.061   2.062   2.062   2.063
  2.066   2.066   2.068   2.070   2.072   2.073   2.074   2.076
  2.077   2.077   2.079   2.081   2.082   2.083   2.085   2.088
  2.089   2.092   2.093   2.095   2.097   2.098   2.099   2.104
  2.104   2.106   2.107   2.112   2.114   2.116   2.118   2.120
  2.122   2.124   2.127   2.130   2.133   2.137   2.139   2.142
  2.145   2.146   2.148   2.151   2.155   2.158   2.168   2.170
  2.174   2.179   2.182   2.190   2.192   2.194   2.197   2.202
  2.203   2.207   2.211   2.212   2.213   2.216   2.218   2.221
  2.224   2.225   2.233   2.234   2.239   2.240   2.242   2.245
  2.248   2.249   2.251   2.253   2.254   2.260   2.263   2.264
  2.265   2.271   2.273   2.275   2.275   2.277   2.280   2.284
  2.285   2.286   2.287   2.290   2.292   2.294   2.294   2.295
  2.298   2.301   2.305   2.306   2.311   2.314   2.318   2.319
  2.320   2.324   2.325   2.327   2.327   2.330   2.330   2.333
  2.334   2.339   2.344   2.346   2.350   2.352   2.354   2.355
  2.355   2.357   2.358   2.361   2.362   2.365   2.367   2.369
  2.370   2.374   2.377   2.377   2.379   2.380   2.383   2.384
  2.384   2.386   2.387   2.389   2.389   2.392   2.393   2.394
  2.396   2.399   2.400   2.402   2.405   2.406   2.407   2.409
  2.409   2.411   2.413   2.413   2.419   2.420   2.421   2.423
  2.426   2.428   2.431   2.432   2.437   2.442   2.442   2.446
  2.449   2.450   2.451   2.453   2.454   2.458   2.459   2.461
  2.462   2.465   2.466   2.469   2.470   2.474   2.475   2.475
  2.478   2.480   2.481   2.484   2.485   2.487   2.490   2.491
  2.493   2.494   2.497   2.499   2.501   2.504   2.505   2.509
  2.512   2.513   2.514   2.516   2.517   2.518   2.520   2.521
  2.522   2.525   2.527   2.527   2.530   2.533   2.534   2.536
  2.538   2.538   2.542   2.546   2.551   2.556   2.561   2.562
  2.567   2.570   2.575   2.576   2.581   2.583   2.585   2.587
  2.587   2.592   2.593   2.596   2.598   2.599   2.600   2.601
  2.603   2.605   2.608   2.610   2.611   2.614   2.617   2.617
  2.619   2.622   2.622   2.624   2.626   2.627   2.629   2.632
  2.633   2.634   2.636   2.638   2.641   2.642   2.644   2.646
  2.648   2.651   2.652   2.652   2.653   2.654   2.657   2.659
  2.660   2.661   2.663   2.667   2.668   2.669   2.671   2.672
  2.674   2.676   2.677   2.678   2.681   2.684   2.684   2.687
  2.687   2.689   2.694   2.697   2.699   2.702   2.705   2.707
  2.709   2.710   2.711   2.713   2.717   2.719   2.723   2.724
  2.727   2.730   2.732   2.737   2.739   2.742   2.742   2.744
  2.746   2.746   2.751   2.753   2.755   2.759   2.759   2.761
  2.764   2.765   2.768   2.770   2.772   2.775   2.776   2.777
  2.779   2.780   2.784   2.786   2.789   2.793   2.794   2.797
  2.801   2.805   2.805   2.813   2.815   2.817   2.822   2.823
  2.825   2.827   2.829   2.833   2.833   2.836   2.838   2.840
  2.842   2.844   2.849   2.851   2.852   2.853   2.854   2.856
  2.858   2.863   2.865   2.866   2.868   2.871   2.873   2.875
  2.878   2.881   2.883   2.883   2.884   2.886   2.888   2.890
  2.892   2.894   2.895   2.897   2.899   2.899   2.902   2.903
  2.905   2.906   2.908   2.909   2.912   2.914   2.915   2.916
  2.919   2.920   2.924   2.926   2.927   2.929   2.932   2.934
  2.935   2.936   2.938   2.942   2.946   2.947   2.950   2.951
  2.955   2.956   2.959   2.967   2.973   2.973   2.977   2.978
  2.979   2.983   2.985   2.988   2.994   2.996   2.999   2.999
  3.001   3.004   3.010   3.013   3.014   3.015   3.018   3.024
  3.024   3.026   3.028   3.036   3.038   3.042   3.044   3.045
  3.046   3.050   3.052   3.054   3.055   3.061   3.064   3.065
  3.067   3.071   3.073   3.076   3.080   3.082   3.087   3.094
  3.101   3.110   3.116   3.124   3.137   3.141   3.151   3.156
  3.156   3.157   3.162   3.166   3.168   3.178   3.185   3.190
  3.192   3.198   3.203   3.213   3.223   3.234   3.238   3.241
  3.245   3.249   3.253   3.258   3.260   3.270   3.272   3.291
  3.295   3.296   3.302   3.310   3.319   3.325   3.328   3.332
  3.336   3.338   3.343   3.345   3.351   3.359   3.370   3.372
  3.403   3.414   3.418   3.419   3.424   3.428   3.429   3.440
  3.446   3.454   3.457   3.463   3.468   3.477   3.483   3.495
  3.501   3.503   3.506   3.512   3.516   3.525   3.530   3.549
  3.556   3.560   3.561   3.570   3.573   3.576   3.588   3.602
  3.609   3.625   3.680   3.692   3.850   3.880   3.976   3.995
  4.071   4.073   4.080   4.086   4.087   4.087   4.092   4.094
  4.099   4.104   4.108   4.109   4.111   4.112   4.116   4.121
  4.126   4.128   4.130   4.134   4.138   4.142   4.150   4.154
  4.156   4.156   4.160   4.164   4.167   4.171   4.173   4.181
  4.185   4.186   4.195   4.199   4.207   4.219   4.233   4.238
  4.241   4.246   4.248   4.253   4.254   4.258   4.259   4.263
  4.265   4.269   4.274   4.275   4.280   4.282   4.294   4.297
  4.304   4.311   4.315   4.330   4.371   4.376   4.386   4.392
  4.395   4.396   4.400   4.403   4.406   4.409   4.415   4.416
  4.419   4.422   4.428   4.429   4.443   4.452   4.457   4.461
  4.470   4.489   4.492   4.518   4.529   4.535   4.546   4.553
  4.559   4.562   4.598   4.610   4.621   4.630   4.634   4.635
  4.640   4.643   4.670   4.687   4.688   4.691   4.695   4.696
  4.698   4.702   4.715   4.719   4.751   4.761   4.778   4.813
  4.830   4.856   4.860   4.868   4.877   4.878   4.885   4.893
  4.903   4.912   4.953   4.960   4.966   4.973   4.975   4.978
  4.982   4.986   4.996   5.005   5.167   5.172   5.181   5.187
  5.195   5.204   5.218   5.226   5.311   5.330   5.334   5.341
  5.354   5.368
 --------------------------------------------------------------
 
          Ground-State Mulliken Net Atomic Charges

     Atom                 Charge (a.u.)
  ----------------------------------------
      1 O                    -0.485327
      2 C                    -0.085021
      3 H                     0.132663
      4 H                     0.121254
      5 H                     0.120175
      6 O                    -0.458042
      7 C                     0.596638
      8 C                    -0.252489
      9 H                     0.140154
     10 H                     0.142007
     11 C                    -0.187096
     12 H                     0.128064
     13 H                     0.111844
     14 C                    -0.176734
     15 H                     0.100829
     16 H                     0.102678
     17 C                     0.004882
     18 C                     0.093138
     19 C                    -0.114647
     20 H                     0.097967
     21 C                    -0.082080
     22 H                     0.093934
     23 C                    -0.086463
     24 H                     0.092637
     25 C                    -0.098930
     26 H                     0.093921
     27 C                    -0.097196
     28 H                     0.087410
     29 C                     0.026337
     30 C                    -0.004703
     31 C                    -0.005578
     32 C                    -0.020212
     33 C                    -0.015247
     34 C                    -0.028961
     35 C                     0.011935
     36 C                    -0.007534
     37 C                     0.003581
     38 C                    -0.051218
     39 C                    -0.079284
     40 C                     0.003376
     41 C                     0.004443
     42 C                     0.050913
     43 C                     0.006934
     44 C                     0.013209
     45 C                    -0.090136
     46 C                     0.061732
     47 C                     0.014208
     48 C                    -0.002836
     49 C                     0.029839
     50 C                     0.008470
     51 C                     0.005381
     52 C                     0.009362
     53 C                     0.017013
     54 C                    -0.006453
     55 C                     0.020815
     56 C                     0.003169
     57 C                    -0.007528
     58 C                    -0.007886
     59 C                    -0.000044
     60 C                     0.022805
     61 C                    -0.019727
     62 C                     0.018205
     63 C                    -0.032355
     64 C                    -0.030175
     65 C                    -0.047133
     66 C                    -0.018821
     67 C                    -0.002698
     68 C                    -0.026253
     69 C                     0.023674
     70 C                     0.030019
     71 C                     0.035815
     72 C                     0.001889
     73 C                     0.003838
     74 C                     0.007059
     75 C                    -0.005558
     76 C                     0.010311
     77 C                    -0.036158
     78 C                     0.019362
     79 C                    -0.013014
     80 C                     0.014072
     81 C                    -0.030820
     82 C                     0.007855
     83 C                    -0.015631
     84 C                    -0.019825
     85 C                     0.023876
     86 C                    -0.008799
     87 C                     0.003014
     88 C                    -0.016519
     89 O                    -0.481649
     90 C                    -0.084136
     91 H                     0.122829
     92 H                     0.128914
     93 H                     0.124228
     94 O                    -0.473681
     95 C                     0.613996
     96 C                    -0.271759
     97 H                     0.138444
     98 H                     0.137923
     99 C                    -0.185071
    100 H                     0.112600
    101 H                     0.135221
    102 C                    -0.196595
    103 H                     0.105745
    104 H                     0.112429
    105 C                     0.012012
    106 C                     0.084935
    107 C                    -0.090906
    108 H                     0.095776
    109 C                    -0.105056
    110 H                     0.092378
    111 C                    -0.082167
    112 H                     0.089210
    113 C                    -0.084782
    114 H                     0.091977
    115 C                    -0.100521
    116 H                     0.092511
    117 C                     0.008928
    118 C                    -0.014133
    119 C                     0.020850
    120 C                    -0.023183
    121 C                    -0.029599
    122 C                    -0.001535
    123 C                    -0.013365
    124 C                    -0.014298
    125 C                     0.020703
    126 C                     0.023812
    127 C                    -0.087160
    128 C                     0.024533
    129 C                    -0.018792
    130 C                    -0.016495
    131 C                     0.015702
    132 C                     0.001801
    133 C                    -0.079054
    134 C                     0.051165
    135 C                    -0.011738
    136 C                     0.021485
    137 C                     0.014963
    138 C                    -0.017763
    139 C                     0.007386
    140 C                    -0.010853
    141 C                     0.011717
    142 C                    -0.003225
    143 C                     0.037822
    144 C                     0.014751
    145 C                    -0.001313
    146 C                     0.005897
    147 C                    -0.040773
    148 C                     0.037278
    149 C                     0.002522
    150 C                     0.005500
    151 C                    -0.012116
    152 C                    -0.034693
    153 C                     0.013297
    154 C                    -0.010100
    155 C                     0.013268
    156 C                    -0.029119
    157 C                    -0.026143
    158 C                     0.022013
    159 C                     0.005425
    160 C                    -0.049616
    161 C                    -0.021017
    162 C                     0.002214
    163 C                     0.021852
    164 C                    -0.027285
    165 C                     0.004706
    166 C                    -0.015847
    167 C                    -0.002389
    168 C                    -0.024990
    169 C                     0.023633
    170 C                    -0.011120
    171 C                     0.043696
    172 C                     0.018642
    173 C                    -0.011215
    174 C                     0.017832
    175 C                     0.008323
    176 C                     0.004837
  ----------------------------------------
  Sum of atomic charges =     0.000000

 -----------------------------------------------------------------
                    Cartesian Multipole Moments
 -----------------------------------------------------------------
    Charge (ESU x 10^10)
                 0.0000
    Dipole Moment (Debye)
         X       0.4467      Y      -1.1314      Z       3.0054
       Tot       3.2422
    Quadrupole Moments (Debye-Ang)
        XX    -781.4433     XY     -17.1817     YY    -800.2930
        XZ       6.2976     YZ     -16.1077     ZZ    -807.7470
    Octopole Moments (Debye-Ang^2)
       XXX     -54.5042    XXY      19.1044    XYY     -98.6347
       YYY    -141.1980    XXZ     264.3800    XYZ     -67.2663
       YYZ     175.1784    XZZ      78.6239    YZZ    -171.3169
       ZZZ     173.0047
    Hexadecapole Moments (Debye-Ang^3)
      XXXX -127801.6785   XXXY   -4366.0632   XXYY  -28746.5601
      XYYY   -1534.9764   YYYY  -42017.3526   XXXZ   -1448.8178
      XXYZ     415.8410   XYYZ    -178.1621   YYYZ    -959.8791
      XXZZ  -27297.2280   XYZZ    -636.7939   YYZZ  -12856.2614
      XZZZ     103.8342   YZZZ    -913.6405   ZZZZ  -35899.7013
 -----------------------------------------------------------------
Archival summary:
1\1\mn366\SP\ProcedureUnspecified\6-31G**\428\afmv_a\SunOct709:50:392018SunOct709:50:392018\0\\#,ProcedureUnspecified,6-31G**,\\0,1\C\C,1,1.35729\C,2,1.40114,1,121.169\C,3,1.37647,2,118.925,1,-4.19339,0\C,4,1.36918,3,123.547,2,-137.891,0\C,5,1.38125,4,108.855,3,143.625,0\C,6,1.37522,5,109.897,4,3.18997,0\C,5,1.40645,4,117.811,3,2.41342,0\C,8,1.31377,5,119.664,4,133.105,0\C,9,1.3789,8,112.572,5,-147.352,0\C,7,1.41,6,108.113,5,1.18644,0\C,11,1.37965,7,122.047,6,-140.393,0\C,3,1.41077,2,108.232,1,-147.05,0\C,13,1.39784,3,108.995,2,1.8715,0\C,14,1.39892,13,107.488,3,-4.3833,0\C,15,1.39442,14,121.239,13,143.266,0\C,13,1.40858,3,116.598,2,139.257,0\C,17,1.39729,13,120.117,3,-137.634,0\C,18,1.39527,17,123.773,13,6.49884,0\C,19,1.42143,18,115.326,17,-2.11763,0\C,20,1.38888,19,108.905,18,144.999,0\C,21,1.40792,20,119.978,19,-147.878,0\C,21,1.41397,20,106.749,19,0.545453,0\C,23,1.37479,21,110.502,20,-4.74648,0\C,24,1.40721,23,125.708,21,-139.459,0\C,25,1.36467,24,118.674,23,137.17,0\C,25,1.37758,24,116.934,23,1.35486,0\C,26,1.38058,25,106.934,24,-140.579,0\C,28,1.38274,26,121.88,25,148.419,0\C,29,1.38316,28,118.467,26,-6.27693,0\C,30,1.38311,29,110.648,28,-139.781,0\C,29,1.38546,28,121.947,26,-139.135,0\C,31,1.40112,30,109.395,29,-1.1904,0\C,33,1.36837,31,118.707,30,139.066,0\C,34,1.38324,33,119.487,31,-133.255,0\C,35,1.3859,34,120.488,33,1.10385,0\C,36,1.39454,35,119.414,34,136.797,0\C,37,1.3809,36,111.403,35,-142.86,0\C,36,1.40245,35,123.092,34,-0.714581,0\C,27,1.4058,25,121.4,24,-1.72693,0\C,40,1.37518,27,119.28,25,137.904,0\C,34,1.41046,33,123.164,31,9.34426,0\C,41,1.41697,40,109.586,27,-138.08,0\C,43,1.37592,41,120.247,40,138.298,0\C,44,1.372,43,123.545,41,6.50383,0\C,44,1.38134,43,119.355,41,-143.339,0\C,46,1.37342,44,123.109,43,4.68199,0\C,45,1.40617,44,108.771,43,-152.457,0\C,43,1.41204,41,107.928,40,-3.0972,0\C,47,1.41226,46,119.124,44,134.332,0\C,50,1.38133,47,119.35,46,3.08429,0\C,48,1.41291,45,105.731,44,2.28574,0\C,52,1.40222,48,119.694,45,140.888,0\C,53,1.41555,52,124.069,48,2.90195,0\C,48,1.41695,45,117.94,44,139.736,0\C,49,1.41737,43,106.931,41,1.67348,0\C,47,1.41801,46,119.644,44,-0.855717,0\C,38,1.42154,37,107.641,36,-3.38068,0\C,58,1.3894,38,117.064,37,138.787,0\C,55,1.44377,48,118.437,45,-142.998,0\C,54,1.52806,53,123.867,52,70.2646,0\C,61,1.46982,54,118.867,53,141.095,0\C,62,1.38257,61,120.505,54,-62.8647,0\H,63,1.08617,62,122.532,61,4.63306,0\C,63,1.36855,62,121.684,61,177.616,0\H,65,1.08571,63,124.189,62,177.45,0\C,65,1.39471,63,119.724,62,-0.414853,0\H,67,1.08631,65,115.618,63,177.668,0\C,62,1.41311,61,118.517,54,116.107,0\H,69,1.08568,62,118.894,61,5.65186,0\C,69,1.39925,62,117.8,61,-176.951,0\H,71,1.08591,69,121.154,62,-177.237,0\C,61,1.553,54,122.239,53,1.73251,0\H,73,1.09655,61,115.784,54,-26.1871,0\H,73,1.09737,61,103.093,54,89.4505,0\C,73,1.58252,61,115.979,54,-155.605,0\H,76,1.09679,73,114.919,61,-48.016,0\H,76,1.09685,73,104.122,61,-162.944,0\C,76,1.55297,73,114.521,61,75.7835,0\H,79,1.09656,76,111.883,73,-58.7969,0\H,79,1.09694,76,115.231,73,55.3097,0\C,79,1.47969,76,111.545,73,175.499,0\O,82,1.22409,79,126.518,76,15.9294,0\O,82,1.38298,79,109.05,76,-157.322,0\C,84,1.44258,82,123.01,79,172.705,0\H,85,1.09649,84,110.5,82,-72.0466,0\H,85,1.0968,84,116.063,82,48.2114,0\H,85,1.09697,84,110.002,82,170.063,0\C,16,3.08504,15,88.7032,14,145.397,0\C,89,1.3889,16,100.35,15,119.504,0\C,90,1.36162,89,120.081,16,112.437,0\C,90,1.37172,89,121.447,16,-107.829,0\C,92,1.38509,90,110.65,89,-147.727,0\C,89,1.39999,16,104.078,15,-2.98685,0\C,94,1.36737,89,121.367,16,104.4,0\C,95,1.38792,94,119.962,89,2.04669,0\C,96,1.38783,95,107.868,94,148.997,0\C,95,1.40057,94,123.458,89,151.63,0\C,98,1.38242,95,106.312,94,-146.653,0\C,94,1.40154,89,111.1,16,-104.866,0\C,100,1.38617,94,119.776,89,-149.272,0\C,93,1.40584,92,115.247,90,138.698,0\C,102,1.38926,93,124.342,92,14.8792,0\C,103,1.38889,102,106.248,93,-145.194,0\C,100,1.40744,94,105.13,89,-7.64827,0\C,105,1.4083,100,119.937,94,-143.014,0\C,106,1.41128,105,119.259,100,140.84,0\C,107,1.36713,106,107.389,105,-136.839,0\C,108,1.38687,107,108.289,106,-1.11421,0\C,109,1.38092,108,111.837,107,-2.1275,0\C,109,1.394,108,122.341,107,143.609,0\C,111,1.37039,109,119.639,108,1.53868,0\C,111,1.40202,109,124.927,108,-139.024,0\C,113,1.38745,111,109.647,109,142.595,0\C,114,1.3883,113,107.641,111,3.14454,0\C,115,1.39251,114,117.093,113,-140.121,0\C,116,1.35845,115,120.99,114,137.151,0\C,117,1.39329,116,111.646,115,-149.387,0\C,116,1.39877,115,123.1,114,-1.96297,0\C,118,1.40235,117,107.015,116,6.22253,0\C,120,1.38629,118,122.95,117,138.719,0\C,121,1.36601,120,119.002,118,-3.415,0\C,118,1.4027,117,118.202,116,140.327,0\C,122,1.41211,121,121.748,120,4.55765,0\C,124,1.40012,122,118.406,121,-141.243,0\C,125,1.4116,124,107.758,122,137.141,0\C,126,1.37866,125,124.022,124,-146.332,0\C,126,1.38765,125,109.248,124,1.91856,0\C,128,1.38549,126,124.932,125,-144.688,0\C,127,1.39415,126,116.419,125,9.38531,0\C,130,1.39702,127,106.098,126,137.376,0\C,131,1.39165,130,113.329,127,3.11231,0\C,132,1.3853,131,104.614,130,-6.96268,0\C,129,1.40236,128,121.917,126,136.796,0\C,134,1.4103,129,105.695,128,-141.507,0\C,135,1.40076,134,110.787,129,-3.48888,0\C,136,1.37195,135,106.378,134,3.3701,0\C,119,1.41235,116,119.087,115,-4.36032,0\C,138,1.40733,119,119.199,116,5.03999,0\C,113,1.41321,111,117.638,109,-2.97792,0\C,89,1.41376,16,105.795,15,-114.884,0\C,101,1.41378,100,120.16,94,135.312,0\C,99,1.41748,98,119.676,95,133.386,0\C,143,1.39556,99,121.477,98,-133.53,0\C,98,1.42194,95,116.067,94,-4.7107,0\C,125,1.43059,124,120.294,122,-2.34411,0\C,140,1.47492,113,122.189,111,147.578,0\C,147,1.47855,140,116.808,113,-7.29465,0\C,148,1.52686,147,62.119,140,118.06,0\C,149,1.5142,148,119.42,147,106.51,0\H,150,1.09703,149,106.85,148,-34.6488,0\H,150,1.09706,149,108.019,148,79.1665,0\C,149,1.52806,148,123.205,147,-106,0\C,153,1.39197,149,118.178,148,-81.5993,0\H,154,1.0861,153,116.408,149,6.70456,0\C,154,1.38249,153,121.791,149,-169.607,0\H,156,1.08643,154,123.399,153,-168.115,0\C,153,1.41027,149,121.841,148,112.914,0\H,158,1.08624,153,123.222,149,-2.18077,0\C,158,1.41515,153,120.098,149,167.922,0\H,160,1.08568,158,115.141,153,-175.107,0\C,160,1.39317,158,120.093,153,6.87403,0\H,162,1.08601,160,121.75,158,177.59,0\C,150,1.54657,149,118.804,148,-154.699,0\H,164,1.09695,150,110.913,149,62.8836,0\H,164,1.09714,150,105.099,149,-47.2415,0\C,164,1.59121,150,110.158,149,-173.292,0\H,167,1.09672,164,106.297,150,-58.5675,0\H,167,1.09711,164,107.616,150,63.2904,0\C,167,1.5103,164,116.33,150,177.058,0\O,170,1.21847,167,126.809,164,-5.61596,0\O,170,1.41428,167,106.982,164,169.965,0\C,172,1.43873,170,119.152,167,-179.075,0\H,173,1.09658,172,115.408,170,37.9595,0\H,173,1.09661,172,110.195,170,156.265,0\H,173,1.09726,172,108.367,170,-86.2255,0\\\@

 Total job time:  851.14s(wall), 7221.81s(cpu) 
 Sun Oct  7 09:50:39 2018

        *************************************************************
        *                                                           *
        *  Thank you very much for using Q-Chem.  Have a nice day.  *
        *                                                           *
        *************************************************************


