
Running Job 1 of 1 ./8/31.qcin
qchem ./8/31.qcin_10261.0 /tmpu/cab_g/afmv_a/scratch_qchem/qchem10261/ 1
/tmpu/appuserlic/qchem4.4/serial-multicore/exe/qcprog.exe_s ./8/31.qcin_10261.0 /tmpu/cab_g/afmv_a/scratch_qchem/qchem10261/
Check license passed

                  Welcome to Q-Chem
     A Quantum Leap Into The Future Of Chemistry


 Q-Chem 4.4, Q-Chem, Inc., Pleasanton, CA (2016)

 Y. Shao,  Z. Gan,  E. Epifanovsky,  A. T. B. Gilbert,  M. Wormit,  
 J. Kussmann,  A. W. Lange,  A. Behn,  J. Deng,  X. Feng,  D. Ghosh,  
 M. Goldey,  P. R. Horn,  L. D. Jacobson,  I. Kaliman,  F. Rob,  
 R. Z. Khaliullin,  T. Kus,  A. Landau,  J. Liu,  E. I. Proynov,  Y. M. Rhee,  
 R. M. Richard,  M. A. Rohrdanz,  R. P. Steele,  E. J. Sundstrom,  
 H. L. Woodcock III,  P. M. Zimmerman,  D. Zuev,  B. Albrecht,  E. Alguire,  
 B. Austin,  S. A. Baeppler,  G. J. O. Beran,  Y. A. Bernard,  E. Berquist,  
 K. Brandhorst,  K. B. Bravaya,  S. T. Brown,  D. Casanova,  C.-M. Chang,  
 Y. Chen,  S. H. Chien,  K. D. Closser,  M. P. Coons,  D. L. Crittenden,  
 S. Dasgupta,  M. Diedenhofen,  R. A. DiStasio Jr.,  H. Do,  A. D. Dutoi,  
 R. G. Edgar,  P.-T. Fang,  S. Fatehi,  Q. Feng,  L. Fusti-Molnar,  
 A. Ghysels,  A. Golubeva-Zadorozhnaya,  J. Gomes,  A. Gunina,  
 M. W. D. Hanson-Heine,  P. H. P. Harbach,  A. W. Hauser,  J. E. Herr,  
 E. G. Hohenstein,  Z. C. Holden,  K. Hui,  T.-C. Jagau,  H. Ji,  B. Kaduk,  
 K. Khistyaev,  Jaehoon Kim,  Jihan Kim,  R. A. King,  P. Klunzinger,  
 K. Koh,  D. Kosenkov,  T. Kowalczyk,  C. M. Krauter,  A. Kunitsa,  
 K. U. Lao,  A. Laurent,  K. V. Lawler,  J. Lee,  D. Lefrancois,  S. Lehtola,  
 S. V. Levchenko,  C. Y. Lin,  Y.-S. Lin,  F. Liu,  E. Livshits,  
 R. C. Lochan,  A. Luenser,  P. Manohar,  S. F. Manzer,  S.-P. Mao,  Y. Mao,  
 N. Mardirossian,  A. V. Marenich,  L. A. Martinez-Martinez,  S. A. Maurer,  
 N. J. Mayhall,  J.-M. Mewes,  A. F. Morrison,  K. Nanda,  T. S. Nguyen-Beck,  
 C. M. Oana,  R. Olivares-Amaya,  D. P. O'Neill,  J. A. Parkhill,  
 T. M. Perrine,  R. Peverati,  P. A. Pieniazek,  F. Plasser,  A. Prociuk,  
 D. R. Rehn,  E. Rosta,  N. J. Russ,  N. Sergueev,  S. M. Sharada,  
 S. Sharma,  D. W. Small,  A. Sodt,  T. Stauch,  T. Stein,  D. Stuck,  
 Y.-C. Su,  A. J. W. Thom,  T. Tsuchimochi,  L. Vogt,  O. Vydrov,  T. Wang,  
 M. A. Watson,  J. Wenzel,  A. White,  C. F. Williams,  V. Vanovschi,  
 K. Yao,  S. Yeganeh,  S. R. Yost,  Z.-Q. You,  I. Y. Zhang,  X. Zhang,  
 Y. Zhao,  B. R. Brooks,  G. K. L. Chan,  D. M. Chipman,  C. J. Cramer,  
 W. A. Goddard III,  M. S. Gordon,  W. J. Hehre,  A. Klamt,  
 H. F. Schaefer III,  M. W. Schmidt,  C. D. Sherrill,  D. G. Truhlar,  
 A. Warshel,  X. Xu,  A. Aspuru-Guzik,  R. Baer,  A. T. Bell,  N. A. Besley,  
 J.-D. Chai,  A. Dreuw,  B. D. Dunietz,  T. R. Furlani,  S. R. Gwaltney,  
 C.-P. Hsu,  Y. Jung,  J. Kong,  D. S. Lambrecht,  W. Liang,  C. Ochsenfeld,  
 V. A. Rassolov,  L. V. Slipchenko,  J. E. Subotnik,  T. Van Voorhis,  
 J. M. Herbert,  A. I. Krylov,  P. M. W. Gill,  M. Head-Gordon

 Contributors to earlier versions of Q-Chem not listed above: 
 R. D. Adamson,  J. Baker,  E. F. C. Byrd,  A. K. Chakraborty,  C.-L. Cheng,  
 H. Dachsel,  R. J. Doerksen,  G. Hawkins,  A. Heyden,  S. Hirata,  
 G. Kedziora,  F. J. Keil,  C. Kelley,  P. P. Korambath,  W. Kurlancheek,  
 A. M. Lee,  M. S. Lee,  D. Liotard,  I. Lotan,  P. E. Maslen,  N. Nair,  
 D. Neuhauser,  R. Olson,  B. Peters,  J. Ritchie,  N. E. Schultz,  
 N. Shenvi,  A. C. Simmonett,  K. S. Thanthiriwatte,  Q. Wu,  W. Zhang

 Please cite Q-Chem as follows:
 Y. Shao et al., Mol. Phys. 113, 184-215 (2015)
 DOI: 10.1080/00268976.2014.952696

 Q-Chem 4.4.2 for Intel X86 Linux

 Parts of Q-Chem use Armadillo 5.200.1 (Boston Tea Smuggler).
 http://arma.sourceforge.net/

 Q-Chem begins on Sun Oct  7 10:50:42 2018  

Host: 
0

     Scratch files written to /tmpu/cab_g/afmv_a/scratch_qchem/qchem10261//
 Dec716 11556_ 22328  22283 4050   
Processing $rem in /tmpu/appuserlic/qchem4.4/serial-multicore/config/preferences.
 MEM_TOTAL  2000 
FILE_GEOM_ORG=        593

Checking the input file for inconsistencies... 	...done.

--------------------------------------------------------------
User input:
--------------------------------------------------------------
$comment
SP
$end

$rem
MEM_STATIC 5000
MEM_TOTAL 20000
JOBTYPE SP
EXCHANGE B3LYP
BASIS 6-31g(d,p)
$end

$molecule
0 1
O          11.112000      8.722000      7.522000
C          11.110000      9.069000      8.930000
H          10.087000      9.034000      9.326000
H          11.550000     10.071000      9.008000
H          11.654000      8.346000      9.551000
O           9.494000     10.142000      6.987000
C          10.338000      9.336000      6.649000
C          10.586000      8.851000      5.153000
H          11.483000      8.238000      5.306000
H          10.869000      9.724000      4.552000
C           9.399000      8.009000      4.619000
H           9.497000      7.076000      5.187000
H           8.438000      8.477000      4.866000
C           9.593000      7.790000      3.091000
H           9.776000      8.748000      2.589000
H          10.441000      7.100000      3.002000
C           8.424000      7.362000      2.293000
C           7.201000      8.261000      2.372000
C           7.079000      9.346000      1.436000
H           7.780000      9.499000      0.621000
C           5.967000     10.187000      1.531000
H           5.886000     11.047000      0.874000
C           4.968000     10.025000      2.555000
H           4.119000     10.701000      2.590000
C           5.102000      8.939000      3.439000
H           4.440000      8.731000      4.274000
C           6.184000      8.046000      3.273000
H           6.211000      7.128000      3.852000
C           5.470000      2.818000      1.553000
C           5.020000      4.081000     -0.473000
C           7.334000      1.456000     -3.150000
C          10.306000      2.153000      2.333000
C          10.223000      3.434000     -3.228000
C           5.345000      4.042000      0.883000
C          11.568000      1.954000     -0.178000
C           5.764000      0.860000     -1.430000
C           8.240000      6.407000     -1.384000
C          10.993000      3.270000      1.853000
C           8.555000      6.602000      0.987000
C           9.629000      6.244000     -1.167000
C          11.496000      4.418000     -0.063000
C          11.317000      2.058000     -1.585000
C           6.353000      5.913000      0.114000
C           9.523000      1.126000     -2.867000
C           8.284000      5.834000      2.225000
C           9.249000      4.741000      2.713000
C           9.413000      2.379000     -3.508000
C           8.318000     -0.311000      0.769000
C           8.010000     -0.140000     -1.528000
C           6.760000      0.003000     -0.863000
C           5.095000      1.668000     -0.531000
C           8.605000      3.554000      3.205000
C           7.532000      6.593000     -0.149000
C           4.823000      2.897000     -1.191000
C          11.647000      3.171000      0.585000
C           5.661000      5.305000     -0.962000
C          10.335000      5.346000     -2.022000
C           8.313000      1.207000      2.660000
C           6.064000      1.577000     -2.564000
C           9.856000      6.221000      0.234000
C           6.284000      0.686000      1.385000
C          11.321000      4.473000     -1.475000
C           7.513000      5.750000     -2.429000
C          10.247000      0.219000     -0.753000
C          10.883000      0.845000      0.353000
C           8.273000      4.852000     -3.240000
C           9.122000      2.288000      2.975000
C          10.389000      4.549000      1.964000
C           9.002000      0.332000      1.810000
C           7.037000      5.054000      2.332000
C           6.191000      3.986000     -2.871000
C          10.680000      5.231000      0.752000
C           9.661000      4.730000     -3.066000
C           6.949000      1.385000      2.426000
C           8.032000      2.536000     -3.664000
C           5.337000      1.569000      0.829000
C           8.274000      0.512000     -2.716000
C           6.241000      5.181000     -2.174000
C           7.438000      3.833000     -3.584000
C           6.062000      5.203000      1.281000
C           7.262000      3.780000      2.934000
C           8.970000     -0.368000     -0.501000
C           5.493000      2.856000     -2.420000
C          11.212000      3.307000     -2.210000
C          10.233000      0.957000      1.614000
C          10.528000      0.992000     -1.883000
C           6.428000      2.691000      2.557000
C           6.994000     -0.125000      0.495000
O          22.464000      6.049000      5.027000
C          22.558000      6.384000      6.432000
H          22.028000      5.746000      7.150000
H          22.053000      7.345000      6.591000
H          23.603000      6.478000      6.749000
O          23.280000      3.923000      5.543000
C          22.870000      4.738000      4.715000
C          22.803000      4.416000      3.284000
H          23.404000      3.511000      3.136000
H          23.270000      5.132000      2.596000
C          21.356000      4.337000      2.763000
H          20.809000      5.287000      2.791000
H          21.275000      4.115000      1.691000
C          20.626000      3.172000      3.417000
H          21.050000      2.249000      3.002000
H          20.796000      3.225000      4.500000
C          19.128000      3.095000      3.115000
C          18.670000      2.602000      1.713000
C          18.574000      1.278000      1.445000
H          18.618000      0.604000      2.295000
C          18.582000      0.871000      0.113000
H          18.655000     -0.162000     -0.213000
C          18.539000      1.814000     -0.916000
H          18.511000      1.539000     -1.966000
C          18.452000      3.154000     -0.622000
H          18.416000      3.967000     -1.341000
C          18.540000      3.573000      0.714000
H          18.825000      4.586000      0.982000
C          13.925000      5.136000      3.589000
C          13.603000      2.730000      3.777000
C          12.740000      2.817000      8.410000
C          17.460000      6.911000      6.886000
C          16.075000      2.014000      9.307000
C          14.271000      3.819000      3.246000
C          17.346000      5.361000      9.196000
C          11.986000      4.264000      6.526000
C          16.976000      1.158000      5.569000
C          18.478000      5.930000      7.091000
C          18.233000      2.700000      4.364000
C          17.917000      1.632000      6.452000
C          18.714000      3.803000      7.930000
C          16.719000      4.287000      9.868000
C          15.831000      2.211000      3.694000
C          14.305000      3.636000      9.884000
C          18.104000      4.063000      3.733000
C          18.317000      5.204000      4.728000
C          14.680000      2.354000      9.468000
C          14.007000      6.970000      7.595000
C          13.006000      5.196000      8.536000
C          12.451000      5.367000      7.285000
C          12.247000      4.269000      5.130000
C          17.292000      6.133000      4.567000
C          17.024000      1.902000      4.450000
C          12.636000      2.973000      4.843000
C          18.430000      5.132000      8.279000
C          14.587000      1.741000      4.073000
C          17.666000      1.586000      7.766000
C          15.503000      7.388000      5.738000
C          12.192000      3.001000      7.060000
C          18.666000      2.613000      5.794000
C          13.309000      6.457000      5.324000
C          18.055000      2.708000      8.548000
C          15.712000      0.694000      6.014000
C          15.159000      5.892000      9.483000
C          16.372000      6.347000      8.969000
C          15.423000      0.698000      7.350000
C          16.826000      7.012000      5.613000
C          18.892000      5.050000      6.035000
C          15.268000      7.412000      7.109000
C          16.664000      4.433000      3.186000
C          13.502000      1.185000      6.240000
C          18.942000      3.767000      6.569000
C          16.419000      1.190000      8.256000
C          14.524000      6.891000      4.815000
C          13.692000      1.791000      8.636000
C          12.886000      5.348000      4.547000
C          13.164000      3.946000      9.126000
C          14.581000      1.117000      5.335000
C          14.080000      0.960000      7.535000
C          15.643000      3.476000      3.128000
C          16.333000      5.671000      3.664000
C          14.001000      6.205000      8.706000
C          12.530000      2.149000      5.977000
C          17.021000      2.994000      9.487000
C          16.459000      7.125000      7.779000
C          15.331000      4.619000     10.003000
C          14.955000      6.040000      3.784000
C          13.058000      6.523000      6.680000
$end

--------------------------------------------------------------
 ----------------------------------------------------------------
             Standard Nuclear Orientation (Angstroms)
    I     Atom           X                Y                Z
 ----------------------------------------------------------------
    1      O       1.2090506084     6.2201310880    -1.0366220505
    2      C       1.9532378456     7.3789750125    -0.5825921897
    3      H       1.2879148958     8.0694283145    -0.0485607203
    4      H       2.3962611437     7.8381933917    -1.4750813143
    5      H       2.7216853885     7.1313608327     0.1606988648
    6      O      -0.4102845010     7.4073664897    -1.9793706407
    7      C       0.1098895069     6.3323192338    -1.7559687631
    8      C      -0.4745324391     4.9250252764    -2.2171842298
    9      H       0.3528683959     4.2737201644    -1.9089691923
   10      H      -0.5239085843     4.9167895643    -3.3130460684
   11      C      -1.7880334777     4.5772690702    -1.4709472415
   12      H      -1.4329889093     4.3621427418    -0.4558703886
   13      H      -2.4647145448     5.4400811438    -1.4361326057
   14      C      -2.4279202257     3.3303853030    -2.1463780825
   15      H      -2.5083824113     3.4830874640    -3.2296439256
   16      H      -1.7709364838     2.4909614870    -1.8877953687
   17      C      -3.8528424846     3.0433317847    -1.8748162414
   18      C      -4.8287986768     4.1633072743    -2.1962745025
   19      C      -5.3926011319     4.2308946569    -3.5175480311
   20      H      -5.2175014054     3.4674682288    -4.2695820560
   21      C      -6.2672157290     5.2789390240    -3.8167173997
   22      H      -6.6563225200     5.3830467223    -4.8244710860
   23      C      -6.5871137429     6.3074633147    -2.8614038155
   24      H      -7.2735749014     7.1024975109    -3.1365287046
   25      C      -6.0403126927     6.1989482455    -1.5698771641
   26      H      -6.1732325174     6.9261714335    -0.7747597167
   27      C      -5.2298104915     5.0849558445    -1.2570895167
   28      H      -4.9290865116     4.9170067343    -0.2275011600
   29      C      -6.8805932990     1.1157875678     2.2530100991
   30      C      -8.2890315761     0.6955280825     0.3185777316
   31      C      -7.7896519185    -3.6817867616     0.3544206279
   32      C      -2.3711068370    -0.8519297286     1.7732794555
   33      C      -5.3152627922    -3.8085215165    -2.1207007335
   34      C      -7.3040290871     1.4472319414     0.9593533593
   35      C      -2.6147547288    -3.2142435596     0.2575370405
   36      C      -8.2438266990    -2.1941606770     2.1872353761
   37      C      -5.9588226643     0.0699981836    -2.9658454709
   38      C      -2.0063646183    -0.8082266529     0.4260188441
   39      C      -4.4450820966     1.6511767116    -1.9823034250
   40      C      -4.6665164446    -0.4832258126    -3.1297565587
   41      C      -2.5485688036    -1.6362090713    -1.6385461795
   42      C      -3.5616139975    -3.9937470246    -0.4836092834
   43      C      -6.7963651233     1.6060128195    -1.2372649355
   44      C      -5.7858845981    -4.6370799915     0.1241135059
   45      C      -4.0494527590     2.1470948851    -0.6431053095
   46      C      -3.0020392737     1.4063840729     0.2044148869
   47      C      -6.1805817431    -4.2752635599    -1.1821380141
   48      C      -4.9500237634    -2.5150104930     3.5205303985
   49      C      -6.4090903090    -3.8310190216     2.2797401792
   50      C      -7.1222335626    -2.7542466769     2.8773705143
   51      C      -8.3214555518    -0.8148974352     2.2024889400
   52      C      -3.3257883110     1.3103949858     1.6014623650
   53      C      -5.9109504570     1.3222882372    -2.2654435338
   54      C      -8.8647517009    -0.4099410062     0.9531432772
   55      C      -2.1151191848    -2.0075075852    -0.3454982911
   56      C      -7.9652574350     0.8169057733    -1.1057170981
   57      C      -4.5368161765    -1.9024810716    -3.0607830113
   58      C      -3.9237571531    -0.3304174764     3.2869491575
   59      C      -8.5617525017    -2.6628178717     0.9345069067
   60      C      -3.7410256654     0.3509319708    -2.4496781735
   61      C      -6.3333215139    -0.6220156739     3.6374874325
   62      C      -3.4346396649    -2.4812779928    -2.3652723635
   63      C      -7.1426574144    -0.7121994235    -2.7686014907
   64      C      -4.0882700418    -4.0639941436     1.7382691456
   65      C      -2.9509007479    -3.2195947165     1.6243011821
   66      C      -6.9439427285    -2.1251612522    -2.6925992259
   67      C      -3.0402736837     0.1759024509     2.3460112793
   68      C      -2.4278764214     0.2913791276    -0.3652920476
   69      C      -3.8052949694    -1.7252065044     3.3450549082
   70      C      -5.0771201143     2.2953223365     0.4041704086
   71      C      -8.5482568175    -1.4889673197    -1.1951765787
   72      C      -2.7952212661    -0.2469294130    -1.6278413259
   73      C      -5.6738568692    -2.6825517505    -2.9114638927
   74      C      -5.2032472962     0.2094204856     3.4226545318
   75      C      -7.4343331290    -3.6878831457    -0.9840529026
   76      C      -7.4067081606    -0.0602559727     2.9178339429
   77      C      -6.7877040662    -4.3592889128     1.0616570355
   78      C      -8.1084464026    -0.3273488329    -1.8063584583
   79      C      -7.8630472971    -2.6028237407    -1.8088530298
   80      C      -6.4533215034     2.0972300071     0.0243597113
   81      C      -4.6054278403     1.8447482717     1.6732623717
   82      C      -5.0603796876    -3.6897329381     2.7148618891
   83      C      -8.9378926349    -1.5552381389     0.1506678062
   84      C      -3.9437928762    -3.6256770069    -1.7798016946
   85      C      -2.8420442615    -2.0190265653     2.3805758543
   86      C      -4.4187583676    -4.4883172255     0.4482624058
   87      C      -5.5428540288     1.3026246488     2.5957265273
   88      C      -6.2161402551    -2.0147761176     3.6172909222
   89      O       9.5016500653    -1.9840062925    -3.5191171841
   90      C      10.3257211739    -0.8759932701    -3.0851817624
   91      H      10.2322998780    -0.5414500606    -2.0445947635
   92      H      10.0049553677     0.0234827313    -3.6254402380
   93      H      11.3843073678    -1.0591924034    -3.3023990447
   94      O      10.4085307708    -3.2570677459    -1.7845077405
   95      C       9.6484878073    -3.1525616770    -2.7485213168
   96      C       8.8341747397    -4.2821002692    -3.2143225584
   97      H       9.2440059831    -5.1824065785    -2.7414410707
   98      H       8.8917504466    -4.5225402050    -4.2834168832
   99      C       7.3268459006    -4.0533487549    -2.9972430438
  100      H       6.9014853686    -3.2306981867    -3.5844461265
  101      H       6.6911025826    -4.8746909061    -3.3525689566
  102      C       7.0151644002    -3.9894809251    -1.5084124481
  103      H       7.1340751211    -5.0040824930    -1.1079453473
  104      H       7.7278575950    -3.3000843971    -1.0378820693
  105      C       5.5789839819    -3.5894792366    -1.1641429966
  106      C       4.4420751572    -4.6317488878    -1.3629627605
  107      C       4.1839233410    -5.5605409267    -0.4117955890
  108      H       4.6475378717    -5.4073282378     0.5578947940
  109      C       3.4829557988    -6.7064249939    -0.7799412250
  110      H       3.3463949648    -7.5742123430    -0.1419833460
  111      C       2.9339292642    -6.8205969503    -2.0587976003
  112      H       2.3533929634    -7.6816728144    -2.3757123520
  113      C       3.0502218250    -5.7853079105    -2.9556017285
  114      H       2.6657379120    -5.7706265101    -3.9710733319
  115      C       3.8353905832    -4.6712167714    -2.6231683444
  116      H       4.2460448878    -4.0098507446    -3.3802522372
  117      C       1.4503391855     0.2049357307    -1.0289645913
  118      C       1.2085692205    -0.9629080336     1.0936640211
  119      C       2.8988912268     2.5929016614     3.6851994595
  120      C       6.2346655759     1.9566619571    -1.7764505230
  121      C       6.1871162057     1.2731458673     3.8173513874
  122      C       1.5296863046    -0.9621060626    -0.2520659574
  123      C       7.3033283560     2.6423323974     0.7013331459
  124      C       1.3107788150     2.5101584482     1.7661284529
  125      C       4.9762353500    -2.1530932562     2.2968797427
  126      C       7.1822787576     1.0685726794    -1.1814406973
  127      C       5.4589889700    -2.5930132947     0.0645586856
  128      C       6.2526415908    -1.6822788449     2.0994793915
  129      C       7.7639716441     0.2647301664     0.8920145349
  130      C       7.0912936201     2.7279294947     2.0962895638
  131      C       3.0489692434    -2.2950370438     0.8133177065
  132      C       5.0254086772     3.3979053853     3.3351215575
  133      C       5.0563439479    -2.1506132923    -1.3191790873
  134      C       5.7893931407    -0.8906143136    -1.7799571840
  135      C       5.0922375486     2.1898396124     4.0374861282
  136      C       3.6655336023     3.9688450292    -0.4422649337
  137      C       3.2564434746     3.9810452404     1.7638752301
  138      C       2.1340330301     3.4787556646     1.1392417567
  139      C       0.8031311851     1.4569268166     0.9599280969
  140      C       4.8574074642    -0.0007707988    -2.3083209015
  141      C       4.4522178075    -2.4861895437     1.1042132016
  142      C       0.9489723578     0.3215775149     1.7364706363
  143      C       7.7409076503     1.4160809232     0.0904176992
  144      C       2.1745937432    -1.7795470670     1.7523675286
  145      C       6.7247998928    -0.7132210566     2.8930199014
  146      C       3.9801488134     2.3146530220    -2.1817634453
  147      C       1.7310211375     2.0284530849     2.9966232044
  148      C       6.5733856052    -1.8667985232     0.7506273739
  149      C       1.8691267653     2.4317779598    -1.0063228209
  150      C       7.4958596250     0.3152133864     2.2851395795
  151      C       4.1195050734    -1.5807668291     3.2712886374
  152      C       5.6048784867     4.1016273667     1.0660593916
  153      C       6.3818285765     3.4994527287     0.0779681694
  154      C       4.5721651982    -0.5505504210     4.0472950574
  155      C       5.0315357932     1.4320496359    -2.3331790371
  156      C       6.9585948901    -0.3490386114    -1.1457229780
  157      C       4.4976631129     3.3570081369    -1.4194532957
  158      C       3.5536573398    -1.6747530489    -1.4779209740
  159      C       2.3684642675    -0.1765472050     3.6431492882
  160      C       7.2453961510    -0.7749879268     0.1465839583
  161      C       5.9079466524    -0.0773294444     3.8312723414
  162      C       2.6498214729     1.8195921697    -1.9755525831
  163      C       3.8000327525     1.7208012655     4.3465925725
  164      C       1.0720734520     1.4292228849    -0.3962995939
  165      C       3.6654394921     3.5657429152     3.0271290591
  166      C       2.8124626475    -1.2965301982     2.9107603659
  167      C       3.5320041036     0.3132886251     4.3272325502
  168      C       2.6273791279    -1.8415640634    -0.4406954635
  169      C       3.5555351391    -0.4701308219    -2.1256637964
  170      C       4.2205720220     4.2657948288     0.7507711803
  171      C       1.4292382174     0.6422708355     3.0181369339
  172      C       7.1139395108     1.5686182536     2.8470882118
  173      C       5.8548303271     3.1217486942    -1.1903241895
  174      C       5.9885610678     3.6192538036     2.3072750951
  175      C       2.4544879669     0.4287832936    -1.9550955180
  176      C       2.3663141332     3.4959841586    -0.2808141112
 ----------------------------------------------------------------
 Molecular Point Group                 C1    NOp =  1
 Largest Abelian Subgroup              C1    NOp =  1
 Nuclear Repulsion Energy = 34903.7291833616 hartrees
 There are      462 alpha and      462 beta electrons
 Requested basis set is 6-31G(d,p)
 There are 676 shells and 2360 basis functions

 Total QAlloc Memory Limit  20000 MB
 Mega-Array Size      4888 MB
 MEM_STATIC part      5000 MB
 A cutoff of  1.0D-08 yielded  38038 shell pairs
 There are    532440 function pairs
 
 -------------------------------------------------------
 OpenMP Integral Computing Module                       
 Release: version 1.0, May 2013, Q-Chem Inc. Pittsburgh 
 -------------------------------------------------------
 Integral Job Info:
 Integral job number is                      11
 Integral operator is                         1
 short-range coefficients                     0
 long-range coefficients              100000000
 Omega coefficients                           0
 if combine SR and LR in K                    0
 Integral screening is                        0
 Integral computing path is                   2
 max size of driver memory is            800000
 size of driver memory is                593474
 size of scratch memory is              2260544
 max col of scratch BK array               1296
 max len of scratch array in speh3          155
 max len of scratch index in speh4           18
 max int batch size is                      520
 min int batch size is                       52
 fixed nKL is                                52
 max L of basis functions is                  2
 order of int derivative is                   0
 number of shells is                        676
 number of basis is                        2360
 number of cartesian basis is              2360
 number of contracted shell pairs         38038
 number of primitive shell pairs         114815
 maxK2 (contraction) of shell pair           36
 max number of K2 of shell pair               1
 max number of CS2 of shell pair           7257
 max number of PS2 of shell pair          34614
 mem total for path MDJ                 1515688
 -------------------------------------------------------
 Smallest overlap matrix eigenvalue = 2.45E-04

 Scale SEOQF with 1.000000e-02/1.000000e-02/1.000000e-01

 Standard Electronic Orientation quadrupole field applied
 Nucleus-field energy     =    -0.0000003090 hartrees
 Guess from superposition of atomic densities
 Warning:  Energy on first SCF cycle will be non-variational
 A restricted hybrid HF-DFT SCF calculation will be
 performed using Pulay DIIS extrapolation
 Exchange:     0.2000 Hartree-Fock + 0.0800 Slater + 0.7200 B88
 Correlation:  0.1900 VWN1RPA + 0.8100 LYP
 Using SG-1 standard quadrature grid
 SCF converges when DIIS error is below 1.0E-05
 using 16 threads for integral computing 
 -------------------------------------------------------
 OpenMP BLAS3 based DFT computing Module                
 Release: version 1.0, May 2013, Q-Chem Inc. Pittsburgh 
 -------------------------------------------------------
 ---------------------------------------
  Cycle       Energy         DIIS Error
 ---------------------------------------
    1   -5858.3011540658      1.83E-02
    2   -5803.1056602840      1.29E-03
    3   -5802.3455539649      1.78E-03
    4   -5803.9671974745      6.39E-04
    5   -5804.1799509509      3.04E-04
    6   -5804.2392097417      1.38E-04
    7   -5804.2525619421      4.78E-05
    8   -5804.2536083943      3.12E-05
    9   -5804.2543073351      8.44E-06 Convergence criterion met
 ---------------------------------------
 SCF time:  CPU 7298.08 s  wall 852.18 s
 SCF   energy in the final basis set = -5804.2543073351
 Total energy in the final basis set = -5804.2543073351
 
 --------------------------------------------------------------
 
                    Orbital Energies (a.u.)
 --------------------------------------------------------------
 
 Alpha MOs
 -- Occupied --
-19.199 -19.195 -19.146 -19.123 -10.324 -10.310 -10.251 -10.250
-10.247 -10.243 -10.238 -10.236 -10.235 -10.232 -10.232 -10.228
-10.227 -10.227 -10.225 -10.225 -10.224 -10.224 -10.223 -10.223
-10.223 -10.222 -10.222 -10.222 -10.222 -10.221 -10.221 -10.221
-10.221 -10.221 -10.220 -10.220 -10.220 -10.220 -10.220 -10.220
-10.220 -10.219 -10.219 -10.219 -10.218 -10.218 -10.218 -10.217
-10.217 -10.217 -10.217 -10.217 -10.217 -10.217 -10.217 -10.217
-10.217 -10.217 -10.217 -10.216 -10.216 -10.216 -10.216 -10.216
-10.215 -10.215 -10.215 -10.215 -10.215 -10.215 -10.215 -10.215
-10.215 -10.214 -10.214 -10.214 -10.214 -10.214 -10.214 -10.214
-10.214 -10.213 -10.213 -10.213 -10.213 -10.213 -10.213 -10.213
-10.213 -10.213 -10.212 -10.212 -10.212 -10.212 -10.212 -10.212
-10.212 -10.212 -10.211 -10.211 -10.211 -10.211 -10.211 -10.211
-10.211 -10.211 -10.211 -10.211 -10.211 -10.211 -10.210 -10.210
-10.210 -10.210 -10.209 -10.209 -10.209 -10.209 -10.209 -10.209
-10.209 -10.208 -10.208 -10.208 -10.208 -10.208 -10.207 -10.207
-10.207 -10.206 -10.206 -10.205 -10.205 -10.205 -10.204 -10.204
-10.202 -10.201 -10.201 -10.200 -10.200 -10.200 -10.200 -10.199
-10.199 -10.198 -10.198 -10.194  -1.104  -1.086  -1.011  -1.002
 -0.984  -0.981  -0.968  -0.964  -0.963  -0.960  -0.960  -0.959
 -0.932  -0.931  -0.929  -0.927  -0.925  -0.924  -0.922  -0.922
 -0.921  -0.918  -0.898  -0.894  -0.893  -0.890  -0.887  -0.880
 -0.880  -0.871  -0.862  -0.849  -0.841  -0.840  -0.839  -0.838
 -0.835  -0.835  -0.827  -0.823  -0.814  -0.800  -0.799  -0.798
 -0.796  -0.795  -0.793  -0.793  -0.791  -0.790  -0.784  -0.780
 -0.774  -0.771  -0.768  -0.768  -0.767  -0.766  -0.764  -0.760
 -0.758  -0.748  -0.747  -0.744  -0.734  -0.733  -0.719  -0.717
 -0.713  -0.713  -0.712  -0.711  -0.710  -0.710  -0.709  -0.707
 -0.707  -0.706  -0.705  -0.705  -0.703  -0.703  -0.675  -0.671
 -0.658  -0.657  -0.655  -0.654  -0.650  -0.645  -0.635  -0.631
 -0.629  -0.628  -0.625  -0.622  -0.621  -0.621  -0.620  -0.617
 -0.616  -0.615  -0.615  -0.613  -0.612  -0.611  -0.609  -0.608
 -0.607  -0.603  -0.602  -0.599  -0.569  -0.568  -0.565  -0.563
 -0.563  -0.560  -0.560  -0.558  -0.558  -0.554  -0.553  -0.549
 -0.538  -0.535  -0.534  -0.530  -0.529  -0.526  -0.525  -0.524
 -0.523  -0.522  -0.521  -0.520  -0.516  -0.515  -0.515  -0.512
 -0.512  -0.506  -0.503  -0.496  -0.494  -0.492  -0.487  -0.486
 -0.485  -0.483  -0.482  -0.480  -0.478  -0.477  -0.476  -0.476
 -0.474  -0.473  -0.470  -0.470  -0.469  -0.468  -0.468  -0.466
 -0.465  -0.465  -0.464  -0.463  -0.462  -0.459  -0.458  -0.458
 -0.455  -0.455  -0.454  -0.452  -0.451  -0.446  -0.445  -0.443
 -0.442  -0.442  -0.440  -0.439  -0.438  -0.436  -0.436  -0.433
 -0.432  -0.430  -0.429  -0.428  -0.427  -0.426  -0.426  -0.426
 -0.423  -0.423  -0.422  -0.421  -0.419  -0.419  -0.418  -0.417
 -0.416  -0.416  -0.416  -0.414  -0.414  -0.413  -0.413  -0.413
 -0.412  -0.411  -0.410  -0.406  -0.404  -0.399  -0.398  -0.396
 -0.394  -0.394  -0.391  -0.390  -0.389  -0.388  -0.387  -0.385
 -0.384  -0.381  -0.379  -0.373  -0.372  -0.370  -0.369  -0.366
 -0.365  -0.364  -0.362  -0.361  -0.360  -0.359  -0.359  -0.358
 -0.358  -0.357  -0.356  -0.356  -0.354  -0.353  -0.352  -0.351
 -0.350  -0.349  -0.349  -0.348  -0.347  -0.347  -0.346  -0.345
 -0.343  -0.342  -0.341  -0.339  -0.338  -0.337  -0.334  -0.333
 -0.331  -0.330  -0.330  -0.328  -0.326  -0.326  -0.324  -0.324
 -0.310  -0.304  -0.301  -0.297  -0.288  -0.286  -0.276  -0.272
 -0.272  -0.269  -0.268  -0.268  -0.266  -0.266  -0.264  -0.263
 -0.262  -0.261  -0.260  -0.258  -0.257  -0.256  -0.255  -0.253
 -0.251  -0.247  -0.243  -0.243  -0.225  -0.223  -0.213  -0.212
 -0.209  -0.208  -0.205  -0.203  -0.200  -0.195
 -- Virtual --
 -0.128  -0.124  -0.121  -0.116  -0.108  -0.105  -0.083  -0.079
 -0.072  -0.070  -0.063  -0.059  -0.054  -0.052  -0.025  -0.024
 -0.022  -0.019  -0.019  -0.018  -0.017  -0.016  -0.014  -0.014
 -0.012  -0.010  -0.010  -0.009  -0.008  -0.007  -0.003   0.007
  0.009   0.018   0.032   0.034   0.038   0.045   0.046   0.049
  0.050   0.051   0.056   0.058   0.058   0.061   0.064   0.065
  0.066   0.075   0.079   0.082   0.085   0.085   0.087   0.092
  0.094   0.096   0.097   0.099   0.100   0.102   0.104   0.107
  0.108   0.109   0.110   0.111   0.113   0.114   0.114   0.118
  0.120   0.120   0.125   0.128   0.128   0.132   0.135   0.136
  0.140   0.141   0.144   0.144   0.148   0.152   0.154   0.154
  0.158   0.159   0.162   0.162   0.163   0.164   0.167   0.169
  0.170   0.171   0.171   0.172   0.174   0.175   0.178   0.182
  0.183   0.184   0.185   0.185   0.186   0.189   0.190   0.190
  0.191   0.193   0.197   0.198   0.200   0.202   0.203   0.204
  0.206   0.209   0.210   0.213   0.214   0.215   0.216   0.219
  0.220   0.221   0.222   0.223   0.223   0.225   0.225   0.226
  0.229   0.229   0.230   0.233   0.235   0.237   0.237   0.238
  0.240   0.241   0.244   0.245   0.246   0.249   0.249   0.252
  0.257   0.266   0.267   0.271   0.275   0.276   0.277   0.281
  0.281   0.282   0.285   0.290   0.292   0.295   0.302   0.304
  0.307   0.308   0.309   0.310   0.312   0.314   0.316   0.317
  0.318   0.319   0.320   0.327   0.327   0.329   0.330   0.335
  0.335   0.336   0.338   0.341   0.342   0.346   0.347   0.348
  0.350   0.354   0.355   0.366   0.367   0.369   0.383   0.387
  0.391   0.394   0.395   0.396   0.400   0.401   0.404   0.405
  0.405   0.408   0.412   0.414   0.416   0.417   0.418   0.420
  0.423   0.427   0.430   0.435   0.438   0.439   0.443   0.444
  0.446   0.449   0.451   0.455   0.457   0.458   0.459   0.460
  0.461   0.463   0.464   0.466   0.467   0.470   0.472   0.474
  0.474   0.474   0.477   0.478   0.479   0.481   0.481   0.482
  0.483   0.485   0.487   0.487   0.488   0.490   0.491   0.493
  0.493   0.494   0.496   0.498   0.499   0.500   0.502   0.503
  0.503   0.505   0.506   0.507   0.507   0.509   0.510   0.511
  0.513   0.513   0.514   0.514   0.515   0.516   0.517   0.519
  0.519   0.521   0.521   0.522   0.522   0.523   0.524   0.525
  0.526   0.527   0.528   0.528   0.529   0.530   0.532   0.532
  0.533   0.533   0.534   0.536   0.537   0.537   0.539   0.539
  0.540   0.541   0.541   0.542   0.544   0.545   0.545   0.546
  0.546   0.547   0.547   0.548   0.549   0.550   0.551   0.552
  0.553   0.553   0.554   0.555   0.556   0.556   0.557   0.557
  0.558   0.559   0.560   0.560   0.561   0.563   0.564   0.565
  0.566   0.566   0.567   0.568   0.569   0.570   0.571   0.572
  0.572   0.573   0.574   0.575   0.576   0.577   0.577   0.578
  0.578   0.579   0.581   0.583   0.583   0.584   0.584   0.585
  0.585   0.586   0.586   0.588   0.589   0.589   0.591   0.592
  0.592   0.593   0.594   0.595   0.596   0.597   0.598   0.598
  0.599   0.599   0.602   0.603   0.603   0.604   0.606   0.606
  0.608   0.609   0.609   0.610   0.612   0.613   0.613   0.614
  0.615   0.616   0.617   0.618   0.621   0.622   0.622   0.623
  0.626   0.627   0.628   0.629   0.630   0.631   0.632   0.632
  0.634   0.635   0.635   0.637   0.637   0.638   0.639   0.641
  0.641   0.642   0.644   0.645   0.645   0.646   0.647   0.649
  0.650   0.650   0.652   0.653   0.653   0.655   0.656   0.657
  0.657   0.658   0.659   0.660   0.661   0.661   0.663   0.663
  0.664   0.664   0.666   0.667   0.668   0.669   0.670   0.671
  0.672   0.672   0.673   0.673   0.674   0.676   0.677   0.677
  0.679   0.680   0.681   0.682   0.683   0.684   0.685   0.686
  0.687   0.688   0.689   0.690   0.691   0.693   0.693   0.695
  0.696   0.697   0.698   0.699   0.701   0.701   0.705   0.705
  0.706   0.708   0.710   0.710   0.712   0.712   0.714   0.715
  0.716   0.717   0.719   0.719   0.721   0.723   0.725   0.725
  0.725   0.727   0.729   0.730   0.731   0.733   0.733   0.734
  0.736   0.737   0.738   0.739   0.740   0.742   0.743   0.745
  0.747   0.748   0.749   0.752   0.753   0.755   0.756   0.757
  0.758   0.760   0.761   0.761   0.762   0.763   0.764   0.766
  0.767   0.769   0.770   0.772   0.773   0.774   0.776   0.778
  0.780   0.780   0.781   0.784   0.784   0.786   0.787   0.788
  0.789   0.790   0.791   0.792   0.793   0.794   0.796   0.796
  0.797   0.799   0.800   0.801   0.802   0.803   0.804   0.805
  0.806   0.807   0.808   0.808   0.809   0.810   0.811   0.812
  0.812   0.813   0.814   0.815   0.815   0.816   0.817   0.818
  0.819   0.821   0.821   0.822   0.822   0.824   0.825   0.826
  0.826   0.827   0.828   0.829   0.832   0.833   0.833   0.835
  0.836   0.837   0.839   0.841   0.844   0.845   0.846   0.849
  0.851   0.852   0.853   0.856   0.858   0.862   0.864   0.865
  0.866   0.868   0.871   0.872   0.876   0.879   0.884   0.886
  0.886   0.889   0.892   0.894   0.897   0.901   0.904   0.905
  0.906   0.908   0.910   0.912   0.916   0.921   0.923   0.926
  0.926   0.929   0.930   0.932   0.933   0.933   0.937   0.937
  0.940   0.941   0.942   0.943   0.945   0.946   0.948   0.951
  0.953   0.953   0.956   0.960   0.963   0.968   0.970   0.971
  0.975   0.975   0.979   0.980   0.981   0.986   0.990   0.991
  0.991   0.993   0.995   0.995   0.999   1.002   1.004   1.006
  1.008   1.010   1.010   1.013   1.014   1.014   1.017   1.019
  1.020   1.022   1.024   1.026   1.027   1.031   1.032   1.034
  1.036   1.037   1.037   1.040   1.041   1.043   1.045   1.045
  1.047   1.049   1.049   1.051   1.055   1.056   1.057   1.059
  1.060   1.062   1.063   1.064   1.066   1.067   1.069   1.070
  1.072   1.073   1.075   1.077   1.078   1.080   1.082   1.086
  1.087   1.088   1.089   1.091   1.093   1.095   1.096   1.098
  1.100   1.100   1.101   1.105   1.107   1.107   1.111   1.115
  1.116   1.119   1.119   1.121   1.122   1.123   1.125   1.127
  1.130   1.131   1.134   1.134   1.137   1.140   1.143   1.143
  1.146   1.147   1.152   1.152   1.154   1.156   1.158   1.159
  1.159   1.163   1.164   1.165   1.166   1.168   1.170   1.170
  1.173   1.174   1.177   1.178   1.180   1.181   1.183   1.185
  1.187   1.188   1.189   1.192   1.193   1.194   1.198   1.199
  1.201   1.203   1.208   1.209   1.212   1.213   1.217   1.220
  1.222   1.226   1.228   1.229   1.232   1.235   1.237   1.240
  1.242   1.243   1.249   1.251   1.251   1.254   1.257   1.260
  1.264   1.266   1.267   1.270   1.272   1.274   1.274   1.275
  1.277   1.280   1.283   1.285   1.286   1.287   1.291   1.293
  1.296   1.301   1.303   1.305   1.305   1.309   1.311   1.315
  1.316   1.318   1.320   1.322   1.324   1.326   1.330   1.333
  1.335   1.339   1.340   1.340   1.342   1.345   1.347   1.350
  1.352   1.352   1.354   1.355   1.358   1.359   1.362   1.364
  1.366   1.368   1.371   1.374   1.375   1.376   1.384   1.387
  1.388   1.390   1.393   1.397   1.399   1.401   1.404   1.408
  1.410   1.412   1.413   1.418   1.421   1.423   1.426   1.426
  1.431   1.432   1.435   1.435   1.440   1.442   1.443   1.448
  1.449   1.450   1.451   1.454   1.456   1.457   1.459   1.461
  1.463   1.469   1.470   1.471   1.473   1.475   1.478   1.482
  1.483   1.484   1.486   1.486   1.489   1.494   1.495   1.497
  1.498   1.499   1.503   1.505   1.508   1.514   1.516   1.518
  1.523   1.524   1.526   1.531   1.533   1.533   1.538   1.540
  1.543   1.544   1.547   1.548   1.549   1.554   1.557   1.558
  1.559   1.562   1.564   1.565   1.567   1.572   1.576   1.577
  1.578   1.580   1.584   1.586   1.587   1.587   1.591   1.593
  1.596   1.598   1.600   1.601   1.605   1.609   1.615   1.616
  1.617   1.624   1.626   1.631   1.632   1.634   1.636   1.641
  1.645   1.649   1.653   1.657   1.659   1.661   1.664   1.666
  1.669   1.671   1.678   1.682   1.686   1.690   1.692   1.695
  1.700   1.700   1.703   1.704   1.707   1.709   1.714   1.714
  1.715   1.717   1.720   1.721   1.725   1.726   1.730   1.730
  1.732   1.734   1.735   1.737   1.740   1.742   1.743   1.744
  1.745   1.747   1.750   1.753   1.755   1.758   1.759   1.760
  1.762   1.763   1.763   1.765   1.766   1.768   1.769   1.770
  1.772   1.772   1.773   1.775   1.775   1.776   1.777   1.778
  1.780   1.782   1.783   1.785   1.785   1.787   1.789   1.789
  1.791   1.792   1.793   1.795   1.796   1.797   1.799   1.800
  1.800   1.803   1.804   1.806   1.807   1.807   1.809   1.810
  1.811   1.814   1.815   1.816   1.820   1.820   1.822   1.823
  1.826   1.828   1.831   1.831   1.832   1.835   1.837   1.839
  1.842   1.844   1.846   1.848   1.849   1.850   1.852   1.854
  1.855   1.858   1.860   1.862   1.864   1.866   1.867   1.868
  1.870   1.871   1.873   1.874   1.876   1.879   1.880   1.880
  1.881   1.883   1.884   1.889   1.895   1.899   1.900   1.903
  1.905   1.907   1.908   1.911   1.913   1.917   1.918   1.919
  1.922   1.925   1.926   1.930   1.930   1.931   1.935   1.936
  1.937   1.940   1.941   1.943   1.943   1.949   1.949   1.952
  1.954   1.955   1.957   1.959   1.961   1.963   1.966   1.968
  1.970   1.972   1.974   1.975   1.976   1.981   1.982   1.983
  1.985   1.986   1.987   1.988   1.988   1.992   1.992   1.994
  1.995   1.996   1.997   1.999   1.999   2.000   2.001   2.001
  2.003   2.004   2.006   2.008   2.009   2.011   2.013   2.014
  2.016   2.017   2.018   2.019   2.021   2.022   2.024   2.025
  2.026   2.026   2.027   2.029   2.031   2.031   2.033   2.034
  2.035   2.037   2.039   2.040   2.042   2.043   2.044   2.045
  2.046   2.047   2.047   2.049   2.050   2.052   2.053   2.055
  2.057   2.057   2.059   2.060   2.062   2.063   2.063   2.065
  2.067   2.068   2.070   2.071   2.073   2.073   2.076   2.077
  2.080   2.080   2.081   2.082   2.084   2.086   2.086   2.088
  2.090   2.094   2.095   2.095   2.099   2.100   2.101   2.104
  2.105   2.109   2.112   2.113   2.116   2.117   2.119   2.120
  2.127   2.128   2.133   2.136   2.141   2.142   2.145   2.147
  2.151   2.154   2.158   2.161   2.163   2.165   2.166   2.169
  2.174   2.178   2.184   2.187   2.195   2.197   2.202   2.204
  2.208   2.212   2.213   2.216   2.218   2.219   2.220   2.224
  2.230   2.232   2.235   2.236   2.237   2.242   2.243   2.245
  2.246   2.249   2.253   2.254   2.256   2.257   2.258   2.264
  2.265   2.267   2.271   2.275   2.276   2.277   2.279   2.280
  2.283   2.285   2.286   2.287   2.289   2.291   2.293   2.301
  2.301   2.303   2.305   2.307   2.308   2.309   2.310   2.316
  2.319   2.322   2.323   2.324   2.326   2.329   2.331   2.332
  2.339   2.341   2.344   2.345   2.347   2.348   2.350   2.352
  2.353   2.353   2.355   2.356   2.360   2.360   2.365   2.366
  2.369   2.370   2.371   2.372   2.375   2.375   2.377   2.380
  2.381   2.383   2.384   2.387   2.387   2.388   2.389   2.392
  2.393   2.394   2.397   2.399   2.401   2.403   2.404   2.406
  2.408   2.409   2.413   2.414   2.414   2.418   2.419   2.422
  2.424   2.425   2.427   2.431   2.432   2.434   2.437   2.439
  2.441   2.444   2.445   2.447   2.451   2.452   2.453   2.458
  2.459   2.463   2.464   2.467   2.469   2.472   2.473   2.476
  2.478   2.479   2.481   2.482   2.484   2.487   2.489   2.490
  2.491   2.492   2.496   2.497   2.497   2.501   2.503   2.507
  2.508   2.509   2.510   2.513   2.515   2.516   2.522   2.523
  2.525   2.526   2.528   2.535   2.536   2.537   2.540   2.540
  2.543   2.544   2.546   2.549   2.554   2.555   2.558   2.564
  2.567   2.572   2.575   2.577   2.578   2.580   2.584   2.589
  2.592   2.593   2.596   2.597   2.598   2.598   2.600   2.603
  2.605   2.607   2.609   2.611   2.613   2.614   2.615   2.617
  2.619   2.620   2.622   2.625   2.626   2.627   2.628   2.631
  2.631   2.633   2.635   2.636   2.638   2.639   2.642   2.644
  2.645   2.649   2.650   2.655   2.656   2.657   2.660   2.661
  2.662   2.663   2.665   2.667   2.668   2.670   2.671   2.673
  2.676   2.676   2.678   2.679   2.681   2.682   2.684   2.685
  2.687   2.691   2.692   2.694   2.698   2.700   2.704   2.707
  2.708   2.709   2.716   2.718   2.719   2.721   2.725   2.727
  2.729   2.729   2.733   2.735   2.737   2.738   2.739   2.741
  2.743   2.744   2.745   2.749   2.751   2.754   2.756   2.762
  2.763   2.766   2.767   2.768   2.770   2.772   2.774   2.776
  2.777   2.778   2.780   2.782   2.786   2.789   2.789   2.791
  2.795   2.799   2.803   2.806   2.809   2.811   2.815   2.817
  2.820   2.822   2.825   2.825   2.829   2.832   2.837   2.842
  2.844   2.845   2.846   2.849   2.851   2.851   2.856   2.857
  2.860   2.864   2.865   2.867   2.870   2.870   2.874   2.874
  2.876   2.878   2.880   2.882   2.883   2.884   2.888   2.891
  2.893   2.894   2.896   2.898   2.900   2.902   2.904   2.905
  2.906   2.908   2.909   2.912   2.913   2.915   2.917   2.919
  2.919   2.920   2.923   2.924   2.927   2.928   2.932   2.933
  2.936   2.939   2.941   2.945   2.947   2.949   2.952   2.953
  2.954   2.958   2.960   2.962   2.966   2.967   2.973   2.980
  2.983   2.985   2.987   2.989   2.993   2.995   2.997   2.998
  3.001   3.002   3.004   3.012   3.014   3.019   3.020   3.021
  3.024   3.028   3.029   3.033   3.036   3.038   3.038   3.039
  3.042   3.043   3.048   3.049   3.051   3.054   3.056   3.059
  3.061   3.067   3.070   3.075   3.076   3.082   3.086   3.096
  3.107   3.108   3.111   3.128   3.132   3.137   3.140   3.150
  3.157   3.160   3.160   3.165   3.166   3.168   3.176   3.181
  3.186   3.193   3.196   3.208   3.217   3.219   3.224   3.228
  3.235   3.249   3.251   3.261   3.262   3.271   3.272   3.281
  3.285   3.295   3.297   3.298   3.313   3.319   3.327   3.329
  3.332   3.334   3.342   3.347   3.350   3.371   3.383   3.384
  3.399   3.411   3.417   3.423   3.424   3.426   3.429   3.435
  3.445   3.454   3.459   3.460   3.463   3.471   3.485   3.489
  3.493   3.505   3.506   3.514   3.520   3.526   3.531   3.540
  3.546   3.549   3.551   3.557   3.560   3.569   3.576   3.584
  3.607   3.608   3.673   3.686   3.848   3.890   3.999   4.042
  4.068   4.074   4.080   4.084   4.085   4.090   4.095   4.098
  4.102   4.107   4.110   4.113   4.118   4.123   4.124   4.126
  4.130   4.131   4.137   4.139   4.144   4.148   4.149   4.152
  4.154   4.159   4.165   4.171   4.175   4.178   4.180   4.183
  4.190   4.194   4.201   4.208   4.212   4.220   4.239   4.239
  4.242   4.247   4.249   4.253   4.256   4.258   4.260   4.265
  4.266   4.268   4.271   4.280   4.284   4.291   4.296   4.302
  4.304   4.312   4.319   4.330   4.375   4.381   4.387   4.392
  4.395   4.396   4.401   4.404   4.409   4.410   4.414   4.415
  4.422   4.424   4.430   4.431   4.433   4.450   4.467   4.471
  4.477   4.487   4.489   4.518   4.536   4.536   4.551   4.552
  4.560   4.563   4.617   4.619   4.623   4.626   4.638   4.641
  4.643   4.653   4.681   4.681   4.691   4.693   4.695   4.697
  4.704   4.707   4.710   4.725   4.739   4.759   4.779   4.815
  4.843   4.844   4.850   4.865   4.867   4.878   4.880   4.884
  4.892   4.908   4.937   4.950   4.961   4.965   4.978   4.981
  4.989   4.994   4.996   5.001   5.151   5.168   5.176   5.177
  5.185   5.189   5.198   5.214   5.288   5.312   5.318   5.342
  5.353   5.360
 --------------------------------------------------------------
 
          Ground-State Mulliken Net Atomic Charges

     Atom                 Charge (a.u.)
  ----------------------------------------
      1 O                    -0.439872
      2 C                    -0.088085
      3 H                     0.135730
      4 H                     0.132554
      5 H                     0.127867
      6 O                    -0.474752
      7 C                     0.558859
      8 C                    -0.262351
      9 H                     0.125764
     10 H                     0.126850
     11 C                    -0.191110
     12 H                     0.110065
     13 H                     0.134537
     14 C                    -0.164146
     15 H                     0.104341
     16 H                     0.110811
     17 C                     0.005159
     18 C                     0.081725
     19 C                    -0.099428
     20 H                     0.095222
     21 C                    -0.095293
     22 H                     0.089727
     23 C                    -0.085525
     24 H                     0.095466
     25 C                    -0.088413
     26 H                     0.096291
     27 C                    -0.104113
     28 H                     0.092204
     29 C                    -0.022155
     30 C                     0.012884
     31 C                     0.026862
     32 C                     0.025661
     33 C                    -0.032004
     34 C                     0.007445
     35 C                    -0.015529
     36 C                    -0.012950
     37 C                     0.000163
     38 C                    -0.026801
     39 C                    -0.091777
     40 C                     0.001268
     41 C                    -0.006735
     42 C                     0.018936
     43 C                     0.046247
     44 C                    -0.027640
     45 C                    -0.057856
     46 C                    -0.013078
     47 C                     0.033349
     48 C                     0.013896
     49 C                     0.007579
     50 C                     0.009088
     51 C                     0.025659
     52 C                    -0.011570
     53 C                     0.019022
     54 C                    -0.035316
     55 C                    -0.011838
     56 C                    -0.043559
     57 C                    -0.009700
     58 C                    -0.019438
     59 C                     0.009182
     60 C                     0.008419
     61 C                    -0.016590
     62 C                    -0.010122
     63 C                    -0.038876
     64 C                    -0.016593
     65 C                    -0.016631
     66 C                     0.021734
     67 C                     0.025944
     68 C                     0.024086
     69 C                    -0.001636
     70 C                    -0.001055
     71 C                     0.022186
     72 C                     0.027334
     73 C                     0.021153
     74 C                     0.001229
     75 C                    -0.013067
     76 C                    -0.005423
     77 C                    -0.020465
     78 C                     0.029714
     79 C                    -0.034000
     80 C                     0.001184
     81 C                     0.015961
     82 C                    -0.025055
     83 C                    -0.010095
     84 C                     0.006327
     85 C                     0.005921
     86 C                     0.023621
     87 C                    -0.001477
     88 C                     0.013186
     89 O                    -0.476929
     90 C                    -0.088162
     91 H                     0.131107
     92 H                     0.119509
     93 H                     0.125772
     94 O                    -0.473191
     95 C                     0.622355
     96 C                    -0.251951
     97 H                     0.137541
     98 H                     0.130167
     99 C                    -0.202746
    100 H                     0.122713
    101 H                     0.108675
    102 C                    -0.187662
    103 H                     0.119623
    104 H                     0.128998
    105 C                     0.003343
    106 C                     0.086877
    107 C                    -0.097679
    108 H                     0.096031
    109 C                    -0.102380
    110 H                     0.095650
    111 C                    -0.072160
    112 H                     0.092980
    113 C                    -0.093368
    114 H                     0.093069
    115 C                    -0.099715
    116 H                     0.091738
    117 C                    -0.016776
    118 C                    -0.022409
    119 C                    -0.003762
    120 C                     0.002652
    121 C                     0.007291
    122 C                     0.015760
    123 C                     0.001481
    124 C                    -0.021540
    125 C                    -0.014900
    126 C                    -0.027071
    127 C                    -0.108828
    128 C                     0.028460
    129 C                     0.017454
    130 C                    -0.011801
    131 C                     0.006694
    132 C                    -0.010963
    133 C                    -0.095220
    134 C                     0.040836
    135 C                     0.002080
    136 C                     0.010074
    137 C                     0.008316
    138 C                    -0.010864
    139 C                     0.000523
    140 C                     0.019186
    141 C                     0.059113
    142 C                     0.032282
    143 C                    -0.018785
    144 C                    -0.041517
    145 C                    -0.013985
    146 C                     0.000885
    147 C                     0.011012
    148 C                     0.023199
    149 C                    -0.010111
    150 C                    -0.037652
    151 C                    -0.021182
    152 C                     0.002137
    153 C                    -0.005394
    154 C                     0.017889
    155 C                    -0.016765
    156 C                    -0.033052
    157 C                    -0.014760
    158 C                     0.009235
    159 C                    -0.013447
    160 C                     0.030519
    161 C                     0.002660
    162 C                    -0.020026
    163 C                    -0.010240
    164 C                     0.001612
    165 C                    -0.000322
    166 C                     0.038217
    167 C                    -0.015505
    168 C                     0.016644
    169 C                     0.014373
    170 C                    -0.015291
    171 C                    -0.025752
    172 C                     0.023117
    173 C                     0.010867
    174 C                    -0.001230
    175 C                     0.013678
    176 C                     0.044407
  ----------------------------------------
  Sum of atomic charges =     0.000000

 -----------------------------------------------------------------
                    Cartesian Multipole Moments
 -----------------------------------------------------------------
    Charge (ESU x 10^10)
                 0.0000
    Dipole Moment (Debye)
         X       1.9057      Y      -1.4858      Z      -2.5755
       Tot       3.5316
    Quadrupole Moments (Debye-Ang)
        XX    -824.4285     XY      -6.4272     YY    -792.4283
        XZ     -12.6745     YZ      13.9296     ZZ    -798.4889
    Octopole Moments (Debye-Ang^2)
       XXX      48.3508    XXY     207.4183    XYY     159.5847
       YYY    -159.3973    XXZ    -216.5860    XYZ      69.6329
       YYZ     -19.8011    XZZ      86.6781    YZZ     -16.8293
       ZZZ    -186.6757
    Hexadecapole Moments (Debye-Ang^3)
      XXXX -145776.1469   XXXY      11.7497   XXYY  -30515.1728
      XYYY   -1175.6758   YYYY  -45209.7612   XXXZ   -1504.8879
      XXYZ    -129.8422   XYYZ    -313.7638   YYYZ     970.1236
      XXZZ  -26998.7437   XYZZ    -723.7994   YYZZ  -11398.7030
      XZZZ    -464.9273   YZZZ     -34.1177   ZZZZ  -23487.7216
 -----------------------------------------------------------------
Archival summary:
1\1\mn366\SP\ProcedureUnspecified\6-31G**\428\afmv_a\SunOct711:05:112018SunOct711:05:112018\0\\#,ProcedureUnspecified,6-31G**,\\0,1\C\C,1,1.37749\C,1,1.41879,2,121.366\C,3,1.39644,1,118.996,2,-10.2664,0\C,4,1.3536,3,120.902,1,4.34273,0\C,5,1.38646,4,108.958,3,-145.128,0\C,5,1.3867,4,119.725,3,2.41738,0\C,7,1.38858,5,118.477,4,-134.311,0\C,6,1.39533,5,120.6,4,139.92,0\C,4,1.39739,3,122.239,1,-135.867,0\C,10,1.39442,4,110.941,3,145.43,0\C,11,1.40178,10,122.139,4,-140.481,0\C,12,1.36479,11,124.052,10,131.978,0\C,13,1.38395,12,111.94,11,-136.728,0\C,13,1.39783,12,116.359,11,4.84513,0\C,15,1.40913,13,116.981,12,-140.387,0\C,16,1.38491,15,123.347,13,0.425971,0\C,17,1.38153,16,120.837,15,-1.70501,0\C,18,1.37479,17,109.719,16,141.918,0\C,19,1.4039,18,119.785,17,-136.485,0\C,20,1.38485,19,122.933,18,139.367,0\C,21,1.39862,20,111.638,19,-147.213,0\C,22,1.35924,21,121.619,20,143.452,0\C,20,1.4011,19,122.39,18,-7.50032,0\C,24,1.38063,20,117.157,19,11.6128,0\C,24,1.39993,20,105.644,19,145.467,0\C,19,1.40805,18,107.511,17,3.86682,0\C,27,1.40036,19,108.082,18,0.965954,0\C,28,1.39864,27,114.075,19,-137.287,0\C,29,1.39495,28,120.542,27,132.727,0\C,30,1.40096,29,120.671,28,0.493119,0\C,31,1.39352,30,119.047,29,-144.929,0\C,27,1.40268,19,119.807,18,-141.144,0\C,33,1.38432,27,123.471,19,139.067,0\C,34,1.34934,33,121.068,27,-3.36666,0\C,26,1.41288,24,121.192,20,-138.525,0\C,36,1.35929,26,119.419,24,141.58,0\C,36,1.39764,26,118.198,24,-0.462839,0\C,37,1.40059,36,123.918,26,0.757279,0\C,39,1.38263,37,120.592,36,-139.069,0\C,35,1.41644,34,120.782,33,-133.502,0\C,41,1.38622,35,118.813,34,-11.5263,0\C,41,1.39666,35,108.345,34,140.839,0\C,34,1.41661,33,106.77,27,-146.91,0\C,1,1.42083,2,124.501,3,-144.603,0\C,45,1.38831,1,122.616,2,-3.27482,0\C,45,1.41105,1,109.547,2,151.646,0\C,47,1.41341,45,107.777,1,-4.30504,0\C,46,1.41946,45,118.342,1,139.186,0\C,49,1.41527,46,108.068,45,-133.372,0\C,38,1.42113,36,107.195,26,143.74,0\C,51,1.4075,38,105.74,36,2.14382,0\C,23,1.42187,22,119.696,21,-1.04462,0\C,53,1.38696,23,107.368,22,-140.693,0\C,53,1.40417,23,117.115,22,1.49044,0\C,55,1.36159,53,124.923,23,1.78055,0\C,25,1.42419,24,124.556,20,135.714,0\C,8,1.42692,7,112.343,5,139.985,0\C,58,1.47474,8,111.685,7,3.29962,0\C,59,1.48186,58,119.299,8,-138.351,0\C,60,1.51671,59,61.6098,58,-118.171,0\C,61,1.4787,60,122.782,59,-97.8623,0\H,62,1.09687,61,112.664,60,31.6416,0\H,62,1.09693,61,97.9148,60,-86.8741,0\C,61,1.51992,60,114.245,59,112.829,0\C,65,1.37561,61,122.444,60,-115.332,0\H,66,1.08568,65,117.586,61,7.91711,0\C,66,1.4127,65,122.984,61,-174.156,0\H,68,1.08569,66,115.867,65,171.745,0\C,68,1.4067,66,119.152,65,-7.04716,0\H,70,1.08582,68,122.335,66,-175.508,0\C,65,1.43813,61,118.729,60,62.2377,0\H,72,1.08583,65,122.687,61,-5.42177,0\C,72,1.39744,65,118.509,61,178.65,0\H,74,1.08527,72,119.678,65,-176.292,0\C,62,1.55576,61,118.177,60,154.942,0\H,76,1.09668,62,112.196,61,-84.764,0\H,76,1.09707,62,112.98,61,38.8652,0\C,76,1.55019,62,108.621,61,162.728,0\H,79,1.097,76,116.172,62,-45.2218,0\H,79,1.09717,76,111.752,62,79.3965,0\C,79,1.59209,76,111.708,62,-170.006,0\O,82,1.215,79,124.868,76,67.866,0\O,82,1.31841,79,112.885,76,-109.153,0\C,84,1.45013,82,122.051,79,-176.138,0\H,85,1.09713,84,106.679,82,68.685,0\H,85,1.09741,84,113.023,82,-168.721,0\H,85,1.09753,84,110.12,82,-53.2676,0\C,81,2.5508,79,167.51,76,-18.5071,0\C,89,1.38061,81,80.9909,79,122.417,0\C,89,1.38696,81,113.956,79,-118.323,0\C,90,1.39199,89,122.481,81,115.034,0\C,92,1.34892,90,110.87,89,138.608,0\C,91,1.40461,89,110.401,81,125.382,0\C,94,1.38425,91,105.709,89,-4.97582,0\C,95,1.40423,94,117.617,91,144.872,0\C,96,1.38351,95,121.703,94,-139.782,0\C,89,1.41864,81,109.178,79,2.18676,0\C,98,1.38291,89,121.119,81,93.3463,0\C,99,1.38322,98,120.905,89,132.556,0\C,100,1.40576,99,111.138,98,-143.951,0\C,101,1.394,100,120.329,99,140.676,0\C,102,1.40993,101,116.479,100,-1.38351,0\C,103,1.38533,102,108.96,101,-149.317,0\C,104,1.36691,103,107.791,102,9.33711,0\C,105,1.38077,104,109.703,103,-7.19451,0\C,103,1.40786,102,123.867,101,14.0117,0\C,107,1.38278,103,113.589,102,-145.221,0\C,108,1.39854,107,107.303,103,137.403,0\C,109,1.40059,108,120.218,107,-151.79,0\C,110,1.36773,109,117.163,108,128.638,0\C,111,1.3959,110,111.063,109,-135.254,0\C,112,1.39269,111,111.078,110,-0.00523375,0\C,104,1.4181,103,118.293,102,148.993,0\C,114,1.34462,104,118.295,103,5.00347,0\C,114,1.37472,104,121.425,103,-133.926,0\C,116,1.33855,114,119.362,104,-3.79249,0\C,117,1.39711,116,121.426,114,6.39121,0\C,118,1.3791,117,108.697,116,138.698,0\C,119,1.37394,118,110.749,117,-3.27699,0\C,120,1.38138,119,123.59,118,-143.722,0\C,116,1.39869,114,107.831,104,148.79,0\C,121,1.41357,120,118.887,119,135.228,0\C,123,1.40442,121,107.616,120,-137.777,0\C,124,1.39377,123,108.347,121,0.34604,0\C,125,1.38583,124,109.283,123,1.55731,0\C,122,1.41722,116,114.717,114,-137.472,0\C,127,1.38044,122,121.885,116,-11.8654,0\C,127,1.39059,122,122.295,116,139.64,0\C,128,1.4031,127,107.66,122,150.996,0\C,101,1.41882,100,106.363,99,6.25855,0\C,131,1.38664,101,106.762,100,-5.43596,0\C,132,1.41736,131,116.991,101,141.424,0\C,133,1.37923,132,121.416,131,4.01425,0\C,134,1.39125,133,122.803,132,-0.911056,0\C,135,1.40252,134,118.192,133,-0.105257,0\C,135,1.40447,134,121.296,133,-141.537,0\C,137,1.399,135,105.043,134,135.924,0\C,138,1.40902,137,110.719,135,9.07588,0\C,128,1.41959,127,119.063,122,6.77258,0\C,92,1.42186,90,118.671,89,-1.90083,0\C,141,1.3912,92,118.77,90,-0.347859,0\C,142,1.38106,141,104.816,92,142.557,0\C,141,1.39633,92,121.908,90,140.816,0\C,144,1.3584,141,110.211,92,-144.266,0\C,145,1.42853,144,122.614,141,143.041,0\C,115,1.45117,114,112.54,104,-159.033,0\C,147,1.5075,115,116.789,114,144.688,0\C,148,1.53868,147,62.7651,115,123.542,0\C,149,1.53008,148,122.726,147,99.7377,0\H,150,1.09724,149,105.15,148,-168.961,0\H,150,1.09754,149,110.416,148,-49.4838,0\C,150,1.52245,149,115.034,148,73.3392,0\H,153,1.09658,150,114.379,149,-41.8847,0\H,153,1.09774,150,103.26,149,65.0345,0\C,153,1.53996,150,110.149,149,-172.604,0\H,156,1.09642,153,115.28,150,-57.3559,0\H,156,1.09731,153,102.782,150,-168.296,0\C,156,1.46831,153,112.572,150,65.3765,0\O,159,1.23203,156,121.675,153,-112.803,0\O,159,1.40744,156,114.026,153,68.8318,0\C,161,1.44744,159,114.332,156,178.586,0\H,162,1.09606,161,111.254,159,-70.7201,0\H,162,1.09703,161,117.991,159,55.9376,0\H,162,1.09719,161,108.27,159,169.807,0\C,149,1.55513,148,111.441,147,-110.012,0\C,166,1.35426,149,120.612,148,125.153,0\H,167,1.08569,166,116.688,149,-12.8611,0\C,167,1.39282,166,118.329,149,159.911,0\H,169,1.08568,167,124.443,166,-170.752,0\C,169,1.3964,167,120.478,166,7.03874,0\H,171,1.08578,169,122.845,167,177.959,0\C,171,1.37463,169,120.175,167,1.75089,0\H,173,1.08592,171,126.178,169,-179.768,0\C,166,1.39919,149,116.811,148,-63.0482,0\H,175,1.08592,166,116.537,149,-3.43752,0\\\@

 Total job time:  868.97s(wall), 7326.20s(cpu) 
 Sun Oct  7 11:05:11 2018

        *************************************************************
        *                                                           *
        *  Thank you very much for using Q-Chem.  Have a nice day.  *
        *                                                           *
        *************************************************************


