
Running Job 1 of 1 ./8/34.qcin
qchem ./8/34.qcin_10768.0 /tmpu/cab_g/afmv_a/scratch_qchem/qchem10768/ 1
/tmpu/appuserlic/qchem4.4/serial-multicore/exe/qcprog.exe_s ./8/34.qcin_10768.0 /tmpu/cab_g/afmv_a/scratch_qchem/qchem10768/
Check license passed

                  Welcome to Q-Chem
     A Quantum Leap Into The Future Of Chemistry


 Q-Chem 4.4, Q-Chem, Inc., Pleasanton, CA (2016)

 Y. Shao,  Z. Gan,  E. Epifanovsky,  A. T. B. Gilbert,  M. Wormit,  
 J. Kussmann,  A. W. Lange,  A. Behn,  J. Deng,  X. Feng,  D. Ghosh,  
 M. Goldey,  P. R. Horn,  L. D. Jacobson,  I. Kaliman,  F. Rob,  
 R. Z. Khaliullin,  T. Kus,  A. Landau,  J. Liu,  E. I. Proynov,  Y. M. Rhee,  
 R. M. Richard,  M. A. Rohrdanz,  R. P. Steele,  E. J. Sundstrom,  
 H. L. Woodcock III,  P. M. Zimmerman,  D. Zuev,  B. Albrecht,  E. Alguire,  
 B. Austin,  S. A. Baeppler,  G. J. O. Beran,  Y. A. Bernard,  E. Berquist,  
 K. Brandhorst,  K. B. Bravaya,  S. T. Brown,  D. Casanova,  C.-M. Chang,  
 Y. Chen,  S. H. Chien,  K. D. Closser,  M. P. Coons,  D. L. Crittenden,  
 S. Dasgupta,  M. Diedenhofen,  R. A. DiStasio Jr.,  H. Do,  A. D. Dutoi,  
 R. G. Edgar,  P.-T. Fang,  S. Fatehi,  Q. Feng,  L. Fusti-Molnar,  
 A. Ghysels,  A. Golubeva-Zadorozhnaya,  J. Gomes,  A. Gunina,  
 M. W. D. Hanson-Heine,  P. H. P. Harbach,  A. W. Hauser,  J. E. Herr,  
 E. G. Hohenstein,  Z. C. Holden,  K. Hui,  T.-C. Jagau,  H. Ji,  B. Kaduk,  
 K. Khistyaev,  Jaehoon Kim,  Jihan Kim,  R. A. King,  P. Klunzinger,  
 K. Koh,  D. Kosenkov,  T. Kowalczyk,  C. M. Krauter,  A. Kunitsa,  
 K. U. Lao,  A. Laurent,  K. V. Lawler,  J. Lee,  D. Lefrancois,  S. Lehtola,  
 S. V. Levchenko,  C. Y. Lin,  Y.-S. Lin,  F. Liu,  E. Livshits,  
 R. C. Lochan,  A. Luenser,  P. Manohar,  S. F. Manzer,  S.-P. Mao,  Y. Mao,  
 N. Mardirossian,  A. V. Marenich,  L. A. Martinez-Martinez,  S. A. Maurer,  
 N. J. Mayhall,  J.-M. Mewes,  A. F. Morrison,  K. Nanda,  T. S. Nguyen-Beck,  
 C. M. Oana,  R. Olivares-Amaya,  D. P. O'Neill,  J. A. Parkhill,  
 T. M. Perrine,  R. Peverati,  P. A. Pieniazek,  F. Plasser,  A. Prociuk,  
 D. R. Rehn,  E. Rosta,  N. J. Russ,  N. Sergueev,  S. M. Sharada,  
 S. Sharma,  D. W. Small,  A. Sodt,  T. Stauch,  T. Stein,  D. Stuck,  
 Y.-C. Su,  A. J. W. Thom,  T. Tsuchimochi,  L. Vogt,  O. Vydrov,  T. Wang,  
 M. A. Watson,  J. Wenzel,  A. White,  C. F. Williams,  V. Vanovschi,  
 K. Yao,  S. Yeganeh,  S. R. Yost,  Z.-Q. You,  I. Y. Zhang,  X. Zhang,  
 Y. Zhao,  B. R. Brooks,  G. K. L. Chan,  D. M. Chipman,  C. J. Cramer,  
 W. A. Goddard III,  M. S. Gordon,  W. J. Hehre,  A. Klamt,  
 H. F. Schaefer III,  M. W. Schmidt,  C. D. Sherrill,  D. G. Truhlar,  
 A. Warshel,  X. Xu,  A. Aspuru-Guzik,  R. Baer,  A. T. Bell,  N. A. Besley,  
 J.-D. Chai,  A. Dreuw,  B. D. Dunietz,  T. R. Furlani,  S. R. Gwaltney,  
 C.-P. Hsu,  Y. Jung,  J. Kong,  D. S. Lambrecht,  W. Liang,  C. Ochsenfeld,  
 V. A. Rassolov,  L. V. Slipchenko,  J. E. Subotnik,  T. Van Voorhis,  
 J. M. Herbert,  A. I. Krylov,  P. M. W. Gill,  M. Head-Gordon

 Contributors to earlier versions of Q-Chem not listed above: 
 R. D. Adamson,  J. Baker,  E. F. C. Byrd,  A. K. Chakraborty,  C.-L. Cheng,  
 H. Dachsel,  R. J. Doerksen,  G. Hawkins,  A. Heyden,  S. Hirata,  
 G. Kedziora,  F. J. Keil,  C. Kelley,  P. P. Korambath,  W. Kurlancheek,  
 A. M. Lee,  M. S. Lee,  D. Liotard,  I. Lotan,  P. E. Maslen,  N. Nair,  
 D. Neuhauser,  R. Olson,  B. Peters,  J. Ritchie,  N. E. Schultz,  
 N. Shenvi,  A. C. Simmonett,  K. S. Thanthiriwatte,  Q. Wu,  W. Zhang

 Please cite Q-Chem as follows:
 Y. Shao et al., Mol. Phys. 113, 184-215 (2015)
 DOI: 10.1080/00268976.2014.952696

 Q-Chem 4.4.2 for Intel X86 Linux

 Parts of Q-Chem use Armadillo 5.200.1 (Boston Tea Smuggler).
 http://arma.sourceforge.net/

 Q-Chem begins on Sun Oct  7 11:33:14 2018  

Host: 
0

     Scratch files written to /tmpu/cab_g/afmv_a/scratch_qchem/qchem10768//
 Dec716 11556_ 22328  22283 4050   
Processing $rem in /tmpu/appuserlic/qchem4.4/serial-multicore/config/preferences.
 MEM_TOTAL  2000 
FILE_GEOM_ORG=        593

Checking the input file for inconsistencies... 	...done.

--------------------------------------------------------------
User input:
--------------------------------------------------------------
$comment
SP
$end

$rem
MEM_STATIC 5000
MEM_TOTAL 20000
JOBTYPE SP
EXCHANGE B3LYP
BASIS 6-31g(d,p)
$end

$molecule
0 1
O          -9.110000     33.346000    -13.472000
C          -8.065000     33.719000    -14.353000
H          -8.282000     33.494000    -15.405000
H          -7.133000     33.241000    -14.030000
H          -7.714000     34.757000    -14.303000
O          -7.977000     34.032000    -11.619000
C          -8.986000     33.520000    -12.150000
C         -10.190000     33.064000    -11.302000
H         -11.011000     33.775000    -11.459000
H          -9.902000     33.233000    -10.257000
C         -10.724000     31.676000    -11.607000
H         -11.710000     31.477000    -11.171000
H         -10.937000     31.683000    -12.683000
C          -9.885000     30.527000    -11.135000
H          -8.943000     30.545000    -11.696000
H          -9.534000     30.691000    -10.109000
C         -10.543000     29.061000    -11.315000
C         -10.968000     28.763000    -12.735000
C          -9.947000     28.257000    -13.427000
H          -8.948000     28.167000    -13.011000
C         -10.120000     27.794000    -14.774000
H          -9.251000     27.381000    -15.276000
C         -11.355000     28.076000    -15.404000
H         -11.461000     27.854000    -16.461000
C         -12.444000     28.597000    -14.684000
H         -13.419000     28.721000    -15.146000
C         -12.266000     28.853000    -13.292000
H         -13.062000     29.162000    -12.621000
C         -13.820000     25.238000     -9.107000
C         -11.985000     23.935000     -9.957000
C         -10.214000     22.865000     -5.958000
C         -12.136000     28.913000     -6.041000
C          -7.753000     25.243000     -6.207000
C         -12.815000     25.022000    -10.052000
C          -9.815000     27.970000     -4.751000
C         -12.532000     22.944000     -6.582000
C          -8.578000     26.001000    -10.024000
C         -10.909000     29.261000     -6.530000
C          -9.885000     27.968000    -10.391000
C          -8.152000     26.994000     -9.181000
C          -8.882000     28.419000     -6.907000
C          -8.960000     26.836000     -4.707000
C         -10.863000     25.598000    -10.905000
C          -9.480000     24.507000     -4.565000
C         -11.323000     28.466000    -10.158000
C         -11.681000     29.101000     -8.879000
C          -8.509000     24.233000     -5.564000
C         -13.296000     25.881000     -4.822000
C         -11.811000     24.098000     -4.586000
C         -12.843000     23.718000     -5.434000
C         -13.131000     23.240000     -7.848000
C         -12.904000     28.629000     -8.421000
C          -9.745000     26.477000    -10.672000
C         -12.164000     23.054000     -8.890000
C          -9.766000     28.698000     -5.931000
C         -10.737000     24.282000    -10.523000
C          -7.590000     26.648000     -7.963000
C         -13.855000     27.515000     -6.429000
C         -11.264000     22.474000     -6.818000
C          -8.985000     28.117000     -9.293000
C         -14.306000     25.146000     -6.862000
C          -7.964000     27.395000     -6.817000
C          -8.513000     24.608000     -9.665000
C         -11.000000     26.225000     -3.871000
C         -11.084000     27.579000     -4.276000
C          -7.897000     24.268000     -8.394000
C         -13.129000     28.541000     -6.996000
C         -10.666000     29.355000     -7.940000
C         -13.312000     27.172000     -5.197000
C         -12.388000     27.430000    -10.225000
C          -9.725000     22.954000     -8.748000
C          -9.351000     28.835000     -8.130000
C          -7.477000     25.300000     -7.539000
C         -14.360000     26.509000     -7.244000
C          -8.964000     23.235000     -6.442000
C         -13.965000     24.382000     -7.999000
C         -10.505000     23.656000     -4.800000
C          -9.630000     23.767000     -9.912000
C          -8.695000     23.238000     -7.875000
C         -12.177000     26.108000    -10.664000
C         -13.304000     27.614000     -9.204000
C         -12.108000     25.390000     -4.150000
C         -10.994000     22.512000     -8.240000
C          -8.050000     26.538000     -5.760000
C         -12.239000     28.061000     -4.948000
C          -9.647000     25.801000     -4.054000
C         -14.051000     26.556000     -8.617000
C         -13.717000     24.875000     -5.632000
O         -10.618000     14.819000     -1.190000
C          -9.819000     13.711000     -1.609000
H          -9.554000     13.155000     -0.702000
H          -8.965000     14.018000     -2.225000
H         -10.271000     12.885000     -2.172000
O         -12.485000     13.561000     -0.714000
C         -11.928000     14.634000     -0.842000
C         -12.789000     15.875000     -0.771000
H         -13.842000     15.646000     -0.975000
H         -12.485000     16.505000     -1.617000
C         -12.496000     16.793000      0.476000
H         -12.688000     16.226000      1.395000
H         -11.437000     17.082000      0.482000
C         -13.344000     18.053000      0.497000
H         -13.229000     18.691000     -0.388000
H         -14.394000     17.781000      0.333000
C         -13.263000     19.011000      1.768000
C         -14.132000     18.454000      2.911000
C         -13.510000     17.679000      3.900000
H         -12.458000     17.411000      3.884000
C         -14.289000     16.970000      4.839000
H         -13.838000     16.242000      5.507000
C         -15.683000     17.100000      4.875000
H         -16.327000     16.491000      5.503000
C         -16.235000     18.034000      4.049000
H         -17.314000     18.141000      4.110000
C         -15.535000     18.590000      3.004000
H         -16.122000     19.268000      2.391000
C         -12.880000     24.314000      3.331000
C         -11.407000     23.102000      4.883000
C          -7.423000     24.745000      3.249000
C         -11.549000     23.221000     -1.417000
C          -6.700000     21.799000      1.374000
C         -12.527000     23.174000      4.133000
C          -8.743000     22.772000     -1.555000
C          -9.589000     25.837000      3.567000
C          -9.830000     19.847000      3.235000
C         -10.980000     21.900000     -1.395000
C         -11.874000     19.580000      2.041000
C          -9.497000     19.612000      1.958000
C          -9.381000     20.576000     -0.629000
C          -7.557000     22.748000     -0.764000
C         -11.732000     20.987000      4.107000
C          -6.843000     24.233000      1.088000
C         -13.006000     20.450000      1.525000
C         -12.789000     21.190000      0.119000
C          -6.545000     23.107000      1.925000
C         -10.319000     26.094000      0.161000
C          -8.448000     25.980000      1.436000
C          -9.541000     26.325000      2.264000
C         -10.807000     25.398000      4.102000
C         -13.175000     22.524000      0.197000
C         -11.200000     19.903000      3.384000
C         -10.535000     24.268000      4.930000
C          -9.582000     21.650000     -1.488000
C         -10.875000     21.827000      4.847000
C          -8.279000     20.105000      1.410000
C         -12.378000     24.820000     -0.136000
C          -8.586000     25.014000      4.026000
C         -10.690000     19.481000      1.131000
C         -11.880000     25.879000      1.998000
C          -8.196000     20.573000      0.184000
C          -9.020000     20.641000      4.066000
C          -8.404000     24.830000     -0.695000
C          -9.285000     24.055000     -1.496000
C          -7.785000     21.183000      3.543000
C         -12.619000     23.546000     -0.611000
C         -11.638000     20.909000     -0.632000
C         -11.189000     25.352000     -0.631000
C         -13.352000     21.669000      2.354000
C          -8.647000     22.738000      4.873000
C         -10.628000     20.123000     -0.135000
C          -7.387000     20.855000      2.208000
C         -12.721000     25.080000      1.248000
C          -6.967000     23.437000      3.197000
C         -11.971000     25.419000      3.261000
C          -7.339000     25.241000      1.910000
C          -9.536000     21.670000      4.870000
C          -7.530000     22.427000      4.025000
C         -12.731000     21.861000      3.610000
C         -13.510000     22.807000      1.558000
C          -8.926000     25.844000      0.154000
C          -9.174000     24.013000      4.789000
C          -7.262000     21.587000      0.076000
C         -10.679000     24.330000     -1.420000
C          -7.333000     24.022000     -0.223000
C         -13.348000     24.077000      2.028000
C         -10.698000     26.409000      1.502000
$end

--------------------------------------------------------------
 ----------------------------------------------------------------
             Standard Nuclear Orientation (Angstroms)
    I     Atom           X                Y                Z
 ----------------------------------------------------------------
    1      O     -13.3203924021     2.6679180675    -0.0672398823
    2      C     -14.3123415911     2.8984231348    -1.0522369485
    3      H     -15.0771334719     2.1123133794    -1.0915158433
    4      H     -13.8289556929     3.0295706146    -2.0272115184
    5      H     -14.8323418719     3.8637793129    -1.0233898093
    6      O     -12.1600040053     4.5544102121    -0.5987849482
    7      C     -12.2952869610     3.5162377662     0.0839173987
    8      C     -11.2804124058     3.1458847614     1.1837011452
    9      H     -11.7505879327     3.3213162112     2.1595954941
   10      H     -10.4953183832     3.9107331697     1.1371792349
   11      C     -10.7843063459     1.7111905296     1.1676936923
   12      H     -10.2644465199     1.4138799490     2.0859775155
   13      H     -11.6917918768     1.0957923503     1.1985010304
   14      C      -9.8169370281     1.3588726984     0.0782099848
   15      H     -10.3456277411     1.4355087307    -0.8794026971
   16      H      -9.0482128648     2.1333381542    -0.0315142997
   17      C      -9.1679933376    -0.1192267719     0.1710218499
   18      C     -10.1973011668    -1.2243168761     0.2426476445
   19      C     -10.5649513881    -1.5943806259    -0.9842293404
   20      H     -10.2099249321    -1.0884548638    -1.8770632212
   21      C     -11.4569050132    -2.6991900654    -1.1904375679
   22      H     -11.7052798101    -2.9564760177    -2.2150584241
   23      C     -12.0839359289    -3.2495431241    -0.0478121956
   24      H     -12.8596111584    -3.9951137613    -0.1900140354
   25      C     -11.6973115620    -2.8785740295     1.2516744453
   26      H     -12.1103844008    -3.3723217505     2.1263338177
   27      C     -10.6584069610    -1.9110403406     1.3911010958
   28      H     -10.2151302809    -1.6230276462     2.3397277203
   29      C      -5.1314699545    -3.1959110206     2.2852155522
   30      C      -5.2507815947    -3.9700858475     0.0105832589
   31      C      -1.3731078715    -2.1397483062    -1.3630444129
   32      C      -4.5399251706     1.8409818524     2.4322596062
   33      C      -2.9485618120     0.4962163958    -2.8937439168
   34      C      -5.8658538753    -3.4727705114     1.1303410658
   35      C      -3.0540793676     2.6059079935     0.1634404754
   36      C      -1.8388159280    -3.2430132654     0.7189410423
   37      C      -6.5505848625    -1.1392002373    -2.4747923923
   38      C      -5.1942059502     2.3164311134     1.3315240967
   39      C      -7.8381141235    -0.2661726133    -0.6603728791
   40      C      -6.3770678495     0.2184837981    -2.4058003192
   41      C      -5.1633903425     2.2116224002    -0.8928606569
   42      C      -2.4587017726     2.0552993131    -1.0032953990
   43      C      -6.9822388122    -2.7367626519    -0.6251264227
   44      C      -1.0883507206     0.1156471925    -1.2765949511
   45      C      -7.8369309233    -0.2868443706     0.8790128030
   46      C      -7.0690556363     0.7233377359     1.6254239868
   47      C      -1.8364963062    -0.2462592375    -2.4277769171
   48      C      -1.8559550951    -0.3397081456     2.6881517041
   49      C      -0.7846219272    -1.0696909217     0.7492395375
   50      C      -1.2574759953    -2.1730142936     1.4475335780
   51      C      -3.0421590250    -3.8699317150     1.1751335987
   52      C      -6.3759962953     0.1367907214     2.6760944154
   53      C      -7.2981274792    -1.5220432314    -1.3333107770
   54      C      -3.8729560072    -4.1862068343     0.0503245379
   55      C      -4.4413688828     2.5977485525     0.1755328129
   56      C      -5.9708649320    -3.5265543560    -1.1221253548
   57      C      -5.1864673481     0.7685347488    -2.8518926837
   58      C      -4.0550113327    -0.0780665891     3.5009132680
   59      C      -1.8495384575    -3.2643256333    -0.6535934055
   60      C      -7.0253882409     0.7342643479    -1.2738934791
   61      C      -3.1549138833    -2.3137084414     3.0595731612
   62      C      -4.5897399490     1.7933103844    -2.0741058826
   63      C      -5.5154210185    -2.0231582041    -2.9444828532
   64      C      -1.3343131433     1.2510783111     0.8195583499
   65      C      -2.3871329197     2.0743786908     1.2866172362
   66      C      -4.2854441430    -1.4218759061    -3.4303979528
   67      C      -5.1096097745     0.7042463219     3.0801406028
   68      C      -6.4518367619     1.7678342751     0.9151213465
   69      C      -2.8532384068     0.4744216439     3.0756832280
   70      C      -7.2998740959    -1.5211155981     1.5115904671
   71      C      -3.8109184159    -3.2980958544    -2.2270193589
   72      C      -6.3993257460     1.7478805964    -0.5105607513
   73      C      -4.1219972712    -0.0298543229    -3.3408991718
   74      C      -4.1943123354    -1.4607672811     3.5053884089
   75      C      -2.0357738342    -1.6361433691    -2.4770066606
   76      C      -3.7335467643    -3.3593378034     2.3081816345
   77      C      -0.7931392280    -1.0440804776    -0.6457757172
   78      C      -5.2314687091    -3.2148685887    -2.2267249239
   79      C      -3.2662096503    -2.2579373905    -2.9516211329
   80      C      -6.9862326770    -2.6985343524     0.8043139035
   81      C      -6.4881773571    -1.1982889365     2.5850355523
   82      C      -1.0810972463     0.0512183800     1.5259207607
   83      C      -3.0891066535    -3.8528455542    -1.1157005252
   84      C      -3.2372776317     1.6250191886    -2.1143271924
   85      C      -3.1587567969     1.6885218199     2.4151756384
   86      C      -1.3281300726     1.3236356995    -0.6082270664
   87      C      -5.3987957805    -2.0032306037     3.0177695269
   88      C      -1.9948396638    -1.6890746351     2.6153632862
   89      O       6.9290601490    -6.1723471304    -2.9274321155
   90      C       7.1202221790    -6.9567127593    -4.1063526550
   91      H       8.1708785143    -6.8366276713    -4.3956809059
   92      H       6.3967049026    -6.7141925326    -4.8942153908
   93      H       7.0976894694    -8.0521599290    -4.0512457097
   94      O       8.0805403039    -7.6004429934    -1.5383804035
   95      C       7.3816060422    -6.6219487393    -1.7172711313
   96      C       6.8278054179    -5.9318945449    -0.4910684248
   97      H       6.8231616294    -6.6000507152     0.3786509365
   98      H       5.7640466382    -5.7546507169    -0.6960900920
   99      C       7.3898578629    -4.4778432013    -0.2599542991
  100      H       8.4773217672    -4.5279366911    -0.1264368873
  101      H       7.1945422480    -3.8604573479    -1.1463653317
  102      C       6.7830129684    -3.7933887293     0.9526488304
  103      H       5.6905462898    -3.6988906278     0.9197753588
  104      H       6.8348290851    -4.4738805819     1.8115003476
  105      C       7.3540455752    -2.3737285103     1.3979045149
  106      C       8.6572735892    -2.5513501242     2.1990950702
  107      C       9.8765675157    -2.4301402899     1.5177284312
  108      H       9.9561242058    -2.2618154296     0.4480922900
  109      C      11.0825204708    -2.7964628753     2.1523371559
  110      H      12.0123407734    -2.8631526128     1.5950260366
  111      C      11.1081806048    -3.1880212455     3.4967536094
  112      H      11.9913014486    -3.5835258835     3.9903877416
  113      C       9.9403758359    -3.0770490491     4.1919177580
  114      H       9.9850120362    -3.3584302995     5.2398887507
  115      C       8.7285774092    -2.9127686655     3.5628569275
  116      H       7.8779721674    -2.9073071369     4.2384773049
  117      C       5.8718056502     2.7003996176     3.0615317407
  118      C       7.7603494252     3.0761511536     1.5319598420
  119      C       5.3265748746     4.9976343771    -1.8777769013
  120      C       2.3555657442    -0.0606633300     0.7115738000
  121      C       5.2526874042     2.0142483498    -3.8300111225
  122      C       7.1367527200     2.3432998707     2.4786066328
  123      C       2.3468905148     0.5480275921    -2.0675809460
  124      C       5.1203926347     5.2171167059     0.5500740808
  125      C       8.0029307448     0.2789825986    -1.2813763232
  126      C       3.0437463445    -0.8734514257    -0.2554158446
  127      C       7.2229634290    -1.2817481170     0.3405458759
  128      C       7.0273140861    -0.4266885201    -1.8704802254
  129      C       4.3182068556    -0.9354917144    -2.0632970377
  130      C       2.9770180694     1.3632897198    -3.0530452670
  131      C       8.2297845955     0.9122639063     1.0044670913
  132      C       3.7350232671     3.7201466280    -2.9282308658
  133      C       6.3784715956    -1.2771889467     1.6020500404
  134      C       4.7853370138    -1.3283392304     1.4264628745
  135      C       5.0248213228     3.3714699269    -3.4498576801
  136      C       2.1267226852     3.4322350922     0.7779399595
  137      C       3.1839189807     4.6725436095    -0.7978876880
  138      C       3.7550707488     4.9589452379     0.4634678388
  139      C       5.8612232215     4.6970383621     1.6192600131
  140      C       4.1668705042    -0.3878223091     2.2435082204
  141      C       8.1623894552    -0.1046190090     0.0337889616
  142      C       7.1466712056     4.3311581937     1.1190368805
  143      C       3.0326853619    -0.6029785971    -1.6526542293
  144      C       8.3767586691     2.2564929087     0.6055986784
  145      C       6.2470185535     0.1290433510    -2.9236554099
  146      C       2.6391110634     1.5312999403     2.2183113346
  147      C       5.8976287621     5.1732267975    -0.5848253324
  148      C       6.4485413710    -1.3838374681    -0.9360140485
  149      C       3.8706412568     3.6181713656     2.4457800950
  150      C       4.9560022822    -0.0930841984    -3.0373450707
  151      C       8.2535211887     1.6159149120    -1.6376254196
  152      C       1.9781395174     2.7148643395    -1.5589295802
  153      C       1.7462521342     1.3818724692    -1.1256307049
  154      C       7.4678795788     2.2287950676    -2.6862736808
  155      C       2.9175204928     0.2074444481     1.9414055282
  156      C       4.2432210394    -1.5045990525     0.1447430356
  157      C       1.8846020720     2.1336132682     1.2134706323
  158      C       6.4563114811    -0.0330852411     2.4617388923
  159      C       7.8176929024     3.7989753929    -1.1558706669
  160      C       5.0329210370    -1.4978317109    -0.9783033201
  161      C       6.4890188034     1.4450149073    -3.3760078633
  162      C       3.6928637672     2.3068162351     2.8419175532
  163      C       5.9502369749     4.1162324965    -2.7470756472
  164      C       5.1892230335     3.8622808312     2.5754051966
  165      C       3.9248371534     4.7407630230    -2.0008275755
  166      C       8.4179094969     2.6365311002    -0.6874506565
  167      C       7.2105683737     3.5378663182    -2.4313062230
  168      C       7.3932559171     0.9783194368     2.1467203194
  169      C       5.1886236441     0.3970058466     2.8637503403
  170      C       2.1889023397     3.7442526349    -0.6011092578
  171      C       7.0991775153     4.5599391764    -0.2530529895
  172      C       4.2879254563     0.9876669554    -3.5831163583
  173      C       1.7295368811     1.1238340431     0.2735739874
  174      C       2.7554164954     2.7142000993    -2.7499497556
  175      C       4.9116756820     1.6862344698     3.2119361863
  176      C       3.1166552149     4.2158492451     1.4466173450
 ----------------------------------------------------------------
 Molecular Point Group                 C1    NOp =  1
 Largest Abelian Subgroup              C1    NOp =  1
 Nuclear Repulsion Energy = 33716.9110689556 hartrees
 There are      462 alpha and      462 beta electrons
 Requested basis set is 6-31G(d,p)
 There are 676 shells and 2360 basis functions

 Total QAlloc Memory Limit  20000 MB
 Mega-Array Size      4888 MB
 MEM_STATIC part      5000 MB
 A cutoff of  1.0D-08 yielded  36633 shell pairs
 There are    519820 function pairs
 
 -------------------------------------------------------
 OpenMP Integral Computing Module                       
 Release: version 1.0, May 2013, Q-Chem Inc. Pittsburgh 
 -------------------------------------------------------
 Integral Job Info:
 Integral job number is                      11
 Integral operator is                         1
 short-range coefficients                     0
 long-range coefficients              100000000
 Omega coefficients                           0
 if combine SR and LR in K                    0
 Integral screening is                        0
 Integral computing path is                   2
 max size of driver memory is            800000
 size of driver memory is                593474
 size of scratch memory is              2260544
 max col of scratch BK array               1296
 max len of scratch array in speh3          155
 max len of scratch index in speh4           18
 max int batch size is                      520
 min int batch size is                       52
 fixed nKL is                                52
 max L of basis functions is                  2
 order of int derivative is                   0
 number of shells is                        676
 number of basis is                        2360
 number of cartesian basis is              2360
 number of contracted shell pairs         36633
 number of primitive shell pairs         111776
 maxK2 (contraction) of shell pair           36
 max number of K2 of shell pair               1
 max number of CS2 of shell pair           7092
 max number of PS2 of shell pair          34230
 mem total for path MDJ                 1481368
 -------------------------------------------------------
 Smallest overlap matrix eigenvalue = 2.45E-04

 Scale SEOQF with 1.000000e-02/1.000000e-02/1.000000e-01

 Standard Electronic Orientation quadrupole field applied
 Nucleus-field energy     =    -0.0000002048 hartrees
 Guess from superposition of atomic densities
 Warning:  Energy on first SCF cycle will be non-variational
 A restricted hybrid HF-DFT SCF calculation will be
 performed using Pulay DIIS extrapolation
 Exchange:     0.2000 Hartree-Fock + 0.0800 Slater + 0.7200 B88
 Correlation:  0.1900 VWN1RPA + 0.8100 LYP
 Using SG-1 standard quadrature grid
 SCF converges when DIIS error is below 1.0E-05
 using 16 threads for integral computing 
 -------------------------------------------------------
 OpenMP BLAS3 based DFT computing Module                
 Release: version 1.0, May 2013, Q-Chem Inc. Pittsburgh 
 -------------------------------------------------------
 ---------------------------------------
  Cycle       Energy         DIIS Error
 ---------------------------------------
    1   -5858.4608636338      1.83E-02
    2   -5803.0587452405      1.31E-03
    3   -5802.1936137784      1.84E-03
    4   -5803.9561527204      6.34E-04
    5   -5804.1707577776      2.82E-04
    6   -5804.2174161829      1.40E-04
    7   -5804.2310614500      4.96E-05
    8   -5804.2321480648      3.30E-05
    9   -5804.2329633016      9.08E-06 Convergence criterion met
 ---------------------------------------
 SCF time:  CPU 7081.18 s  wall 824.38 s
 SCF   energy in the final basis set = -5804.2329633016
 Total energy in the final basis set = -5804.2329633016
 
 --------------------------------------------------------------
 
                    Orbital Energies (a.u.)
 --------------------------------------------------------------
 
 Alpha MOs
 -- Occupied --
-19.207 -19.197 -19.133 -19.132 -10.324 -10.317 -10.250 -10.250
-10.247 -10.246 -10.245 -10.240 -10.239 -10.239 -10.230 -10.230
-10.228 -10.227 -10.225 -10.225 -10.223 -10.222 -10.221 -10.221
-10.220 -10.220 -10.220 -10.220 -10.219 -10.219 -10.219 -10.218
-10.218 -10.218 -10.218 -10.218 -10.218 -10.218 -10.217 -10.217
-10.217 -10.217 -10.217 -10.217 -10.217 -10.217 -10.217 -10.217
-10.216 -10.216 -10.216 -10.216 -10.216 -10.216 -10.216 -10.216
-10.216 -10.216 -10.215 -10.215 -10.215 -10.215 -10.215 -10.215
-10.215 -10.215 -10.214 -10.214 -10.214 -10.214 -10.214 -10.214
-10.214 -10.214 -10.214 -10.214 -10.214 -10.214 -10.213 -10.213
-10.213 -10.213 -10.213 -10.213 -10.213 -10.213 -10.213 -10.212
-10.212 -10.212 -10.212 -10.212 -10.212 -10.212 -10.211 -10.211
-10.211 -10.211 -10.211 -10.211 -10.211 -10.211 -10.210 -10.210
-10.210 -10.210 -10.210 -10.210 -10.210 -10.210 -10.209 -10.209
-10.209 -10.209 -10.209 -10.209 -10.209 -10.209 -10.209 -10.208
-10.208 -10.207 -10.207 -10.207 -10.207 -10.207 -10.207 -10.207
-10.206 -10.206 -10.206 -10.205 -10.204 -10.204 -10.204 -10.203
-10.203 -10.201 -10.200 -10.200 -10.199 -10.199 -10.198 -10.197
-10.197 -10.195 -10.192 -10.190  -1.107  -1.094  -1.013  -1.000
 -0.983  -0.981  -0.965  -0.963  -0.963  -0.961  -0.960  -0.958
 -0.934  -0.931  -0.927  -0.926  -0.925  -0.923  -0.922  -0.921
 -0.920  -0.920  -0.895  -0.892  -0.892  -0.890  -0.886  -0.884
 -0.878  -0.875  -0.859  -0.856  -0.842  -0.839  -0.838  -0.837
 -0.835  -0.832  -0.824  -0.819  -0.813  -0.803  -0.798  -0.796
 -0.795  -0.795  -0.793  -0.792  -0.790  -0.788  -0.785  -0.779
 -0.773  -0.770  -0.769  -0.768  -0.766  -0.764  -0.763  -0.763
 -0.751  -0.750  -0.747  -0.743  -0.735  -0.735  -0.720  -0.715
 -0.714  -0.714  -0.713  -0.711  -0.710  -0.709  -0.708  -0.708
 -0.707  -0.705  -0.704  -0.703  -0.702  -0.702  -0.675  -0.673
 -0.660  -0.656  -0.656  -0.654  -0.649  -0.646  -0.636  -0.632
 -0.629  -0.627  -0.624  -0.623  -0.621  -0.618  -0.618  -0.616
 -0.615  -0.614  -0.613  -0.612  -0.612  -0.611  -0.607  -0.605
 -0.604  -0.603  -0.603  -0.601  -0.583  -0.575  -0.569  -0.565
 -0.561  -0.561  -0.560  -0.557  -0.556  -0.555  -0.553  -0.553
 -0.539  -0.537  -0.535  -0.533  -0.529  -0.527  -0.525  -0.524
 -0.522  -0.520  -0.517  -0.517  -0.515  -0.512  -0.512  -0.510
 -0.507  -0.507  -0.504  -0.497  -0.492  -0.489  -0.487  -0.485
 -0.483  -0.482  -0.482  -0.479  -0.479  -0.478  -0.477  -0.474
 -0.473  -0.472  -0.471  -0.470  -0.469  -0.467  -0.466  -0.464
 -0.463  -0.463  -0.463  -0.462  -0.461  -0.461  -0.460  -0.457
 -0.457  -0.454  -0.453  -0.453  -0.452  -0.448  -0.446  -0.445
 -0.444  -0.442  -0.440  -0.438  -0.436  -0.434  -0.433  -0.431
 -0.430  -0.430  -0.429  -0.427  -0.427  -0.425  -0.424  -0.423
 -0.422  -0.422  -0.421  -0.420  -0.419  -0.419  -0.418  -0.417
 -0.417  -0.416  -0.416  -0.416  -0.415  -0.413  -0.413  -0.412
 -0.410  -0.410  -0.409  -0.408  -0.400  -0.399  -0.398  -0.395
 -0.394  -0.392  -0.391  -0.391  -0.387  -0.387  -0.384  -0.383
 -0.381  -0.378  -0.372  -0.371  -0.370  -0.368  -0.367  -0.365
 -0.364  -0.363  -0.363  -0.362  -0.361  -0.358  -0.357  -0.357
 -0.356  -0.356  -0.355  -0.354  -0.353  -0.353  -0.352  -0.351
 -0.351  -0.349  -0.347  -0.347  -0.346  -0.344  -0.343  -0.343
 -0.342  -0.341  -0.340  -0.339  -0.338  -0.338  -0.335  -0.333
 -0.333  -0.332  -0.330  -0.329  -0.326  -0.325  -0.324  -0.321
 -0.317  -0.312  -0.300  -0.297  -0.290  -0.286  -0.273  -0.271
 -0.267  -0.267  -0.266  -0.266  -0.265  -0.264  -0.264  -0.262
 -0.261  -0.259  -0.258  -0.258  -0.256  -0.255  -0.254  -0.253
 -0.251  -0.250  -0.247  -0.246  -0.223  -0.219  -0.212  -0.210
 -0.207  -0.206  -0.204  -0.202  -0.200  -0.196
 -- Virtual --
 -0.127  -0.121  -0.117  -0.116  -0.108  -0.107  -0.079  -0.076
 -0.071  -0.070  -0.062  -0.059  -0.054  -0.052  -0.024  -0.023
 -0.021  -0.018  -0.017  -0.016  -0.015  -0.014  -0.013  -0.012
 -0.011  -0.010  -0.008  -0.007  -0.004  -0.002  -0.001   0.000
  0.003   0.009   0.033   0.035   0.042   0.044   0.047   0.048
  0.052   0.055   0.056   0.057   0.062   0.064   0.065   0.068
  0.072   0.073   0.077   0.081   0.083   0.086   0.089   0.092
  0.097   0.098   0.099   0.101   0.103   0.105   0.106   0.107
  0.109   0.109   0.110   0.114   0.116   0.118   0.120   0.122
  0.123   0.126   0.126   0.128   0.130   0.131   0.133   0.135
  0.140   0.141   0.145   0.146   0.148   0.150   0.151   0.152
  0.155   0.159   0.161   0.162   0.163   0.163   0.165   0.168
  0.170   0.171   0.172   0.174   0.176   0.177   0.180   0.181
  0.184   0.185   0.185   0.187   0.188   0.189   0.191   0.192
  0.194   0.195   0.196   0.198   0.199   0.200   0.201   0.203
  0.205   0.207   0.211   0.212   0.214   0.215   0.218   0.219
  0.219   0.221   0.222   0.224   0.224   0.226   0.227   0.228
  0.230   0.230   0.231   0.233   0.237   0.238   0.239   0.239
  0.242   0.245   0.245   0.247   0.253   0.253   0.256   0.257
  0.262   0.263   0.266   0.268   0.272   0.275   0.279   0.281
  0.282   0.283   0.286   0.286   0.288   0.294   0.297   0.301
  0.303   0.308   0.311   0.314   0.314   0.318   0.319   0.319
  0.320   0.321   0.322   0.325   0.326   0.326   0.330   0.332
  0.333   0.336   0.337   0.342   0.346   0.348   0.349   0.352
  0.352   0.353   0.357   0.366   0.368   0.369   0.382   0.383
  0.393   0.394   0.398   0.403   0.404   0.407   0.407   0.409
  0.411   0.412   0.413   0.414   0.415   0.419   0.422   0.424
  0.428   0.428   0.434   0.436   0.438   0.443   0.445   0.447
  0.448   0.450   0.451   0.453   0.455   0.459   0.460   0.466
  0.468   0.471   0.472   0.472   0.473   0.474   0.475   0.477
  0.477   0.479   0.481   0.482   0.484   0.485   0.485   0.486
  0.486   0.488   0.490   0.491   0.492   0.492   0.493   0.496
  0.497   0.497   0.498   0.499   0.501   0.504   0.505   0.508
  0.509   0.509   0.510   0.511   0.511   0.512   0.512   0.513
  0.514   0.514   0.515   0.516   0.518   0.518   0.519   0.520
  0.520   0.521   0.521   0.522   0.523   0.525   0.525   0.526
  0.527   0.528   0.528   0.529   0.530   0.531   0.532   0.532
  0.533   0.534   0.535   0.535   0.536   0.537   0.538   0.538
  0.539   0.539   0.540   0.541   0.542   0.542   0.543   0.544
  0.545   0.546   0.547   0.548   0.548   0.551   0.551   0.552
  0.553   0.553   0.555   0.555   0.556   0.557   0.557   0.558
  0.559   0.559   0.560   0.561   0.562   0.562   0.563   0.565
  0.566   0.567   0.567   0.568   0.569   0.570   0.570   0.571
  0.571   0.573   0.573   0.575   0.576   0.576   0.577   0.578
  0.579   0.580   0.580   0.581   0.582   0.583   0.585   0.585
  0.586   0.587   0.588   0.588   0.589   0.589   0.590   0.591
  0.591   0.592   0.592   0.593   0.595   0.596   0.596   0.598
  0.599   0.600   0.601   0.602   0.604   0.605   0.607   0.608
  0.609   0.610   0.611   0.613   0.614   0.615   0.616   0.616
  0.619   0.620   0.621   0.622   0.623   0.623   0.624   0.624
  0.626   0.627   0.628   0.628   0.630   0.632   0.632   0.632
  0.634   0.635   0.636   0.637   0.638   0.638   0.640   0.640
  0.641   0.643   0.643   0.644   0.646   0.647   0.648   0.650
  0.651   0.652   0.654   0.654   0.655   0.656   0.657   0.658
  0.659   0.660   0.660   0.661   0.662   0.663   0.663   0.664
  0.666   0.667   0.668   0.668   0.669   0.670   0.671   0.671
  0.672   0.673   0.674   0.674   0.675   0.678   0.678   0.680
  0.682   0.683   0.684   0.686   0.687   0.687   0.689   0.690
  0.691   0.692   0.692   0.693   0.693   0.695   0.696   0.697
  0.698   0.701   0.702   0.703   0.704   0.705   0.706   0.706
  0.707   0.710   0.712   0.714   0.714   0.716   0.717   0.718
  0.718   0.719   0.721   0.721   0.723   0.723   0.725   0.726
  0.727   0.728   0.730   0.730   0.731   0.733   0.734   0.735
  0.736   0.738   0.740   0.741   0.742   0.744   0.744   0.746
  0.747   0.747   0.750   0.751   0.753   0.755   0.756   0.757
  0.759   0.760   0.761   0.763   0.764   0.765   0.766   0.768
  0.769   0.770   0.771   0.772   0.773   0.774   0.775   0.775
  0.777   0.779   0.781   0.782   0.784   0.784   0.785   0.787
  0.788   0.788   0.790   0.792   0.793   0.794   0.795   0.797
  0.800   0.801   0.802   0.802   0.804   0.804   0.805   0.805
  0.807   0.807   0.809   0.810   0.810   0.810   0.812   0.812
  0.813   0.814   0.815   0.815   0.817   0.817   0.818   0.819
  0.819   0.821   0.821   0.823   0.823   0.825   0.826   0.827
  0.827   0.827   0.829   0.829   0.830   0.832   0.833   0.835
  0.836   0.838   0.838   0.840   0.843   0.847   0.849   0.850
  0.851   0.853   0.856   0.857   0.860   0.861   0.863   0.867
  0.874   0.874   0.876   0.878   0.887   0.888   0.890   0.891
  0.895   0.898   0.899   0.899   0.902   0.905   0.906   0.909
  0.910   0.913   0.915   0.917   0.919   0.922   0.923   0.924
  0.926   0.928   0.929   0.929   0.931   0.932   0.936   0.937
  0.939   0.940   0.942   0.945   0.949   0.949   0.952   0.954
  0.957   0.958   0.959   0.960   0.962   0.963   0.966   0.967
  0.970   0.974   0.974   0.979   0.983   0.985   0.989   0.992
  0.995   0.997   0.998   0.998   1.001   1.003   1.004   1.007
  1.008   1.011   1.011   1.014   1.016   1.017   1.018   1.019
  1.022   1.023   1.024   1.025   1.027   1.030   1.030   1.032
  1.033   1.035   1.037   1.038   1.038   1.040   1.042   1.042
  1.044   1.045   1.047   1.048   1.051   1.052   1.057   1.059
  1.060   1.065   1.066   1.068   1.070   1.070   1.072   1.073
  1.074   1.076   1.077   1.080   1.080   1.082   1.084   1.086
  1.087   1.087   1.088   1.088   1.090   1.093   1.095   1.097
  1.101   1.102   1.103   1.104   1.105   1.107   1.108   1.110
  1.111   1.113   1.114   1.118   1.120   1.125   1.127   1.127
  1.133   1.135   1.136   1.137   1.141   1.144   1.147   1.148
  1.148   1.149   1.152   1.155   1.158   1.159   1.161   1.162
  1.165   1.166   1.167   1.168   1.171   1.172   1.173   1.175
  1.177   1.178   1.180   1.181   1.182   1.184   1.185   1.187
  1.188   1.190   1.193   1.195   1.197   1.199   1.201   1.202
  1.204   1.207   1.209   1.210   1.213   1.214   1.217   1.220
  1.223   1.225   1.228   1.230   1.236   1.239   1.242   1.245
  1.246   1.248   1.250   1.251   1.255   1.255   1.257   1.259
  1.262   1.263   1.265   1.266   1.270   1.270   1.273   1.274
  1.275   1.278   1.280   1.282   1.285   1.288   1.290   1.291
  1.293   1.295   1.297   1.302   1.304   1.305   1.308   1.309
  1.313   1.314   1.315   1.320   1.323   1.323   1.325   1.328
  1.328   1.332   1.335   1.336   1.340   1.342   1.347   1.349
  1.349   1.352   1.353   1.355   1.358   1.360   1.363   1.364
  1.366   1.369   1.373   1.376   1.377   1.380   1.380   1.383
  1.384   1.387   1.390   1.393   1.395   1.395   1.399   1.403
  1.406   1.408   1.410   1.414   1.417   1.418   1.421   1.423
  1.427   1.429   1.434   1.435   1.437   1.443   1.447   1.447
  1.452   1.455   1.457   1.459   1.460   1.461   1.463   1.465
  1.466   1.467   1.470   1.470   1.473   1.475   1.475   1.476
  1.479   1.483   1.484   1.487   1.488   1.489   1.490   1.492
  1.492   1.497   1.499   1.504   1.505   1.507   1.510   1.513
  1.514   1.516   1.518   1.523   1.524   1.527   1.529   1.536
  1.537   1.541   1.543   1.548   1.549   1.551   1.553   1.554
  1.555   1.558   1.559   1.561   1.562   1.567   1.568   1.569
  1.572   1.575   1.576   1.578   1.580   1.583   1.588   1.589
  1.593   1.593   1.594   1.599   1.601   1.603   1.605   1.605
  1.607   1.619   1.621   1.627   1.628   1.630   1.632   1.634
  1.637   1.640   1.644   1.649   1.656   1.659   1.663   1.666
  1.671   1.675   1.679   1.682   1.686   1.694   1.695   1.696
  1.697   1.701   1.702   1.704   1.705   1.707   1.713   1.713
  1.716   1.721   1.722   1.725   1.728   1.728   1.731   1.732
  1.733   1.734   1.738   1.738   1.739   1.742   1.744   1.745
  1.749   1.749   1.751   1.751   1.752   1.755   1.756   1.756
  1.759   1.760   1.763   1.763   1.764   1.767   1.768   1.769
  1.770   1.772   1.772   1.773   1.774   1.776   1.776   1.778
  1.780   1.782   1.784   1.785   1.786   1.787   1.788   1.788
  1.791   1.792   1.792   1.793   1.794   1.795   1.796   1.799
  1.800   1.801   1.803   1.804   1.804   1.807   1.811   1.811
  1.812   1.813   1.814   1.815   1.818   1.820   1.820   1.823
  1.825   1.825   1.827   1.829   1.830   1.832   1.832   1.834
  1.837   1.841   1.842   1.843   1.847   1.849   1.852   1.853
  1.853   1.856   1.857   1.858   1.862   1.863   1.866   1.866
  1.868   1.869   1.869   1.870   1.873   1.874   1.876   1.879
  1.881   1.882   1.884   1.886   1.889   1.891   1.893   1.895
  1.897   1.901   1.904   1.906   1.908   1.910   1.918   1.918
  1.922   1.924   1.924   1.928   1.930   1.934   1.936   1.937
  1.938   1.940   1.945   1.946   1.948   1.949   1.950   1.952
  1.954   1.955   1.957   1.958   1.960   1.962   1.963   1.966
  1.966   1.968   1.970   1.973   1.977   1.979   1.980   1.982
  1.987   1.988   1.989   1.990   1.991   1.994   1.994   1.996
  1.997   1.999   2.000   2.000   2.002   2.003   2.005   2.007
  2.008   2.009   2.010   2.012   2.013   2.014   2.014   2.016
  2.017   2.019   2.020   2.022   2.022   2.025   2.026   2.027
  2.028   2.028   2.029   2.031   2.031   2.033   2.034   2.036
  2.038   2.039   2.039   2.040   2.041   2.043   2.045   2.046
  2.047   2.048   2.049   2.050   2.050   2.054   2.054   2.056
  2.057   2.060   2.061   2.062   2.063   2.064   2.067   2.067
  2.069   2.070   2.072   2.073   2.074   2.077   2.078   2.080
  2.080   2.083   2.085   2.087   2.088   2.090   2.090   2.093
  2.094   2.095   2.099   2.100   2.101   2.102   2.104   2.108
  2.111   2.112   2.116   2.118   2.121   2.122   2.123   2.126
  2.128   2.129   2.132   2.134   2.137   2.141   2.142   2.145
  2.149   2.151   2.154   2.158   2.160   2.162   2.164   2.167
  2.168   2.178   2.180   2.182   2.192   2.193   2.198   2.203
  2.205   2.210   2.211   2.213   2.215   2.218   2.220   2.223
  2.228   2.228   2.231   2.233   2.237   2.239   2.241   2.244
  2.249   2.252   2.252   2.257   2.259   2.262   2.262   2.266
  2.268   2.270   2.271   2.272   2.277   2.279   2.280   2.283
  2.284   2.286   2.288   2.290   2.291   2.293   2.294   2.296
  2.301   2.302   2.303   2.305   2.308   2.310   2.312   2.317
  2.321   2.321   2.322   2.324   2.326   2.328   2.333   2.334
  2.335   2.340   2.341   2.345   2.347   2.349   2.350   2.351
  2.356   2.359   2.360   2.360   2.362   2.363   2.365   2.368
  2.369   2.370   2.373   2.373   2.375   2.376   2.380   2.380
  2.383   2.385   2.386   2.387   2.390   2.393   2.394   2.397
  2.398   2.399   2.401   2.403   2.403   2.404   2.405   2.407
  2.411   2.413   2.414   2.416   2.417   2.418   2.420   2.421
  2.422   2.424   2.425   2.426   2.428   2.432   2.434   2.435
  2.438   2.446   2.448   2.450   2.454   2.456   2.459   2.460
  2.463   2.465   2.468   2.470   2.471   2.475   2.477   2.478
  2.479   2.480   2.481   2.482   2.486   2.487   2.489   2.491
  2.493   2.496   2.497   2.498   2.502   2.504   2.506   2.508
  2.510   2.510   2.511   2.513   2.513   2.517   2.519   2.521
  2.522   2.523   2.526   2.528   2.532   2.532   2.536   2.539
  2.541   2.544   2.547   2.551   2.552   2.556   2.561   2.564
  2.567   2.569   2.577   2.579   2.582   2.586   2.590   2.591
  2.593   2.596   2.597   2.599   2.600   2.602   2.605   2.608
  2.611   2.613   2.614   2.614   2.617   2.620   2.620   2.621
  2.623   2.623   2.624   2.627   2.630   2.631   2.632   2.634
  2.636   2.638   2.639   2.641   2.642   2.644   2.645   2.646
  2.647   2.648   2.650   2.651   2.652   2.655   2.656   2.658
  2.659   2.661   2.662   2.665   2.666   2.670   2.672   2.674
  2.675   2.677   2.679   2.680   2.682   2.682   2.687   2.688
  2.689   2.693   2.693   2.696   2.697   2.700   2.703   2.707
  2.713   2.714   2.716   2.718   2.719   2.722   2.723   2.725
  2.729   2.729   2.731   2.733   2.736   2.740   2.742   2.744
  2.746   2.748   2.750   2.753   2.757   2.759   2.760   2.760
  2.762   2.765   2.768   2.769   2.773   2.773   2.777   2.779
  2.781   2.783   2.784   2.784   2.790   2.791   2.794   2.797
  2.799   2.803   2.804   2.806   2.807   2.808   2.810   2.816
  2.820   2.821   2.822   2.826   2.830   2.833   2.836   2.838
  2.843   2.844   2.848   2.852   2.854   2.856   2.858   2.860
  2.862   2.865   2.868   2.869   2.870   2.872   2.876   2.877
  2.878   2.879   2.884   2.885   2.888   2.890   2.890   2.891
  2.895   2.897   2.898   2.900   2.900   2.901   2.903   2.906
  2.907   2.907   2.909   2.910   2.913   2.915   2.920   2.922
  2.924   2.925   2.925   2.926   2.930   2.931   2.933   2.936
  2.939   2.939   2.941   2.944   2.947   2.948   2.952   2.955
  2.958   2.960   2.963   2.968   2.972   2.975   2.980   2.982
  2.985   2.988   2.992   2.993   2.995   3.000   3.002   3.006
  3.009   3.012   3.016   3.018   3.021   3.022   3.024   3.026
  3.030   3.033   3.036   3.039   3.041   3.045   3.047   3.047
  3.050   3.051   3.051   3.057   3.059   3.061   3.063   3.067
  3.067   3.075   3.079   3.081   3.084   3.089   3.097   3.099
  3.110   3.113   3.117   3.121   3.128   3.136   3.142   3.145
  3.149   3.158   3.160   3.164   3.175   3.176   3.181   3.185
  3.187   3.192   3.200   3.210   3.220   3.230   3.231   3.237
  3.241   3.250   3.253   3.257   3.265   3.265   3.272   3.290
  3.291   3.302   3.306   3.310   3.315   3.323   3.325   3.330
  3.337   3.339   3.341   3.350   3.353   3.362   3.376   3.380
  3.404   3.414   3.418   3.420   3.425   3.436   3.446   3.446
  3.449   3.472   3.475   3.475   3.477   3.484   3.492   3.495
  3.498   3.505   3.510   3.517   3.522   3.528   3.535   3.541
  3.556   3.570   3.571   3.576   3.584   3.592   3.603   3.607
  3.620   3.622   3.682   3.696   3.857   3.860   3.998   4.005
  4.066   4.069   4.071   4.076   4.080   4.085   4.094   4.097
  4.101   4.104   4.105   4.107   4.108   4.114   4.118   4.119
  4.120   4.126   4.128   4.137   4.142   4.145   4.149   4.150
  4.155   4.157   4.162   4.164   4.165   4.167   4.170   4.175
  4.177   4.181   4.188   4.194   4.196   4.214   4.225   4.234
  4.240   4.243   4.245   4.247   4.249   4.250   4.251   4.254
  4.258   4.259   4.266   4.267   4.276   4.281   4.285   4.288
  4.294   4.306   4.308   4.344   4.368   4.374   4.384   4.388
  4.391   4.396   4.400   4.402   4.410   4.413   4.418   4.420
  4.421   4.422   4.429   4.437   4.443   4.448   4.454   4.465
  4.468   4.476   4.493   4.497   4.527   4.534   4.548   4.551
  4.562   4.566   4.599   4.608   4.626   4.628   4.635   4.638
  4.646   4.657   4.667   4.671   4.690   4.694   4.696   4.698
  4.702   4.704   4.710   4.718   4.731   4.742   4.776   4.796
  4.840   4.841   4.856   4.862   4.873   4.876   4.882   4.889
  4.896   4.907   4.945   4.952   4.959   4.972   4.978   4.986
  4.987   4.995   5.001   5.016   5.161   5.167   5.177   5.191
  5.201   5.206   5.208   5.212   5.310   5.328   5.337   5.358
  5.366   5.372
 --------------------------------------------------------------
 
          Ground-State Mulliken Net Atomic Charges

     Atom                 Charge (a.u.)
  ----------------------------------------
      1 O                    -0.436942
      2 C                    -0.092604
      3 H                     0.126428
      4 H                     0.127817
      5 H                     0.130632
      6 O                    -0.491110
      7 C                     0.595118
      8 C                    -0.258564
      9 H                     0.132286
     10 H                     0.136811
     11 C                    -0.192828
     12 H                     0.099896
     13 H                     0.128295
     14 C                    -0.172234
     15 H                     0.109874
     16 H                     0.115035
     17 C                    -0.011977
     18 C                     0.116038
     19 C                    -0.104189
     20 H                     0.096614
     21 C                    -0.091483
     22 H                     0.093655
     23 C                    -0.088846
     24 H                     0.091066
     25 C                    -0.093523
     26 H                     0.099600
     27 C                    -0.113914
     28 H                     0.092382
     29 C                    -0.009838
     30 C                     0.035622
     31 C                    -0.015220
     32 C                    -0.013004
     33 C                     0.001391
     34 C                     0.005829
     35 C                    -0.031885
     36 C                     0.022244
     37 C                     0.009028
     38 C                    -0.027868
     39 C                    -0.090799
     40 C                     0.021580
     41 C                     0.036184
     42 C                    -0.001746
     43 C                    -0.010391
     44 C                     0.039197
     45 C                    -0.083193
     46 C                     0.028553
     47 C                    -0.037058
     48 C                     0.019775
     49 C                     0.019456
     50 C                    -0.033747
     51 C                    -0.010215
     52 C                    -0.003982
     53 C                     0.014252
     54 C                    -0.015051
     55 C                     0.033338
     56 C                     0.001032
     57 C                    -0.033102
     58 C                     0.001591
     59 C                    -0.004420
     60 C                     0.054847
     61 C                    -0.008277
     62 C                    -0.022250
     63 C                    -0.032343
     64 C                     0.006568
     65 C                    -0.015930
     66 C                    -0.032228
     67 C                    -0.002177
     68 C                    -0.023783
     69 C                     0.001775
     70 C                     0.044668
     71 C                     0.027521
     72 C                    -0.021254
     73 C                     0.034267
     74 C                    -0.009783
     75 C                     0.004915
     76 C                    -0.013309
     77 C                     0.019205
     78 C                     0.007268
     79 C                     0.008159
     80 C                    -0.021830
     81 C                     0.027206
     82 C                    -0.013396
     83 C                    -0.038672
     84 C                     0.010760
     85 C                     0.015375
     86 C                    -0.011726
     87 C                    -0.007700
     88 C                     0.009044
     89 O                    -0.462622
     90 C                    -0.093106
     91 H                     0.125283
     92 H                     0.127314
     93 H                     0.130985
     94 O                    -0.461283
     95 C                     0.588138
     96 C                    -0.242387
     97 H                     0.134959
     98 H                     0.122524
     99 C                    -0.190610
    100 H                     0.117184
    101 H                     0.122123
    102 C                    -0.189597
    103 H                     0.106415
    104 H                     0.108846
    105 C                    -0.008841
    106 C                     0.090940
    107 C                    -0.105567
    108 H                     0.095164
    109 C                    -0.101172
    110 H                     0.089310
    111 C                    -0.070180
    112 H                     0.093213
    113 C                    -0.083936
    114 H                     0.084484
    115 C                    -0.109329
    116 H                     0.090928
    117 C                    -0.037498
    118 C                    -0.010386
    119 C                    -0.028917
    120 C                    -0.009156
    121 C                    -0.030046
    122 C                     0.017554
    123 C                    -0.008961
    124 C                     0.000162
    125 C                     0.047206
    126 C                    -0.018367
    127 C                    -0.072503
    128 C                     0.002874
    129 C                    -0.003038
    130 C                    -0.020330
    131 C                     0.019884
    132 C                     0.006225
    133 C                    -0.084656
    134 C                    -0.001277
    135 C                     0.001039
    136 C                    -0.021873
    137 C                     0.023583
    138 C                     0.006087
    139 C                    -0.017524
    140 C                     0.021023
    141 C                    -0.013202
    142 C                    -0.028707
    143 C                    -0.004172
    144 C                     0.014049
    145 C                     0.009408
    146 C                    -0.020297
    147 C                     0.020546
    148 C                     0.010307
    149 C                     0.056183
    150 C                     0.026570
    151 C                    -0.022170
    152 C                    -0.035501
    153 C                     0.036430
    154 C                     0.002739
    155 C                     0.004071
    156 C                     0.007421
    157 C                     0.031939
    158 C                     0.024878
    159 C                    -0.021823
    160 C                     0.015165
    161 C                    -0.028490
    162 C                    -0.025235
    163 C                     0.035349
    164 C                    -0.004380
    165 C                    -0.020952
    166 C                     0.010476
    167 C                    -0.008335
    168 C                    -0.010656
    169 C                     0.023721
    170 C                     0.006103
    171 C                     0.030316
    172 C                    -0.008708
    173 C                    -0.016849
    174 C                     0.019420
    175 C                     0.002899
    176 C                    -0.016604
  ----------------------------------------
  Sum of atomic charges =     0.000000

 -----------------------------------------------------------------
                    Cartesian Multipole Moments
 -----------------------------------------------------------------
    Charge (ESU x 10^10)
                 0.0000
    Dipole Moment (Debye)
         X      -4.0346      Y      -2.5347      Z       1.0325
       Tot       4.8754
    Quadrupole Moments (Debye-Ang)
        XX    -726.2113     XY      20.4423     YY    -835.7941
        XZ       1.9817     YZ       6.5397     ZZ    -792.0839
    Octopole Moments (Debye-Ang^2)
       XXX   -1206.1602    XXY    -270.0341    XYY     -61.7339
       YYY     -35.8504    XXZ      77.3300    XYZ     -46.9156
       YYZ     -19.4946    XZZ       1.5226    YZZ    -142.3195
       ZZZ     -25.6420
    Hexadecapole Moments (Debye-Ang^3)
      XXXX -179755.1538   XXXY    1014.2348   XXYY  -42895.3459
      XYYY    1178.4527   YYYY  -40747.0023   XXXZ    1674.8838
      XXYZ      22.5889   XYYZ    -403.5561   YYYZ     673.6581
      XXZZ  -35131.4321   XYZZ   -1419.2080   YYZZ   -9155.1584
      XZZZ     -18.7498   YZZZ     439.4023   ZZZZ  -19927.2755
 -----------------------------------------------------------------
Archival summary:
1\1\mn366\SP\ProcedureUnspecified\6-31G**\428\afmv_a\SunOct711:47:152018SunOct711:47:152018\0\\#,ProcedureUnspecified,6-31G**,\\0,1\C\C,1,1.3882\C,2,1.39095,1,119.115\C,2,1.39347,1,103.551,3,139.84,0\C,4,1.38086,2,112.269,1,1.326,0\C,5,1.37846,4,106.45,2,-1.21476,0\C,3,1.41527,2,121.237,1,-1.35573,0\C,7,1.37496,3,108.669,2,141.633,0\C,8,1.41395,7,107.542,3,0.280995,0\C,9,1.38793,8,109.734,7,0.199635,0\C,10,1.3871,9,119.401,8,-137.97,0\C,11,1.34724,10,121.55,9,-7.59614,0\C,11,1.38137,10,123.07,9,133.519,0\C,9,1.39221,8,119.288,7,-144.68,0\C,14,1.37623,9,119.778,8,0.860672,0\C,15,1.38921,14,107.794,9,139.607,0\C,16,1.38218,15,122.458,14,-148.602,0\C,17,1.38959,16,117.705,15,140.193,0\C,18,1.34837,17,123.083,16,2.91528,0\C,19,1.38201,18,119.291,17,2.74963,0\C,20,1.34985,19,110.741,18,-144.788,0\C,16,1.39184,15,109.725,14,5.8828,0\C,14,1.40088,9,119.818,8,139.572,0\C,18,1.40411,17,109.231,16,-138.72,0\C,24,1.40609,18,122.72,17,141.977,0\C,25,1.34046,24,121.259,18,-132.382,0\C,25,1.37922,24,119.041,18,12.1534,0\C,27,1.40741,25,117.532,24,-16.017,0\C,8,1.41445,7,122.232,3,-149.658,0\C,29,1.39204,8,117.375,7,8.15591,0\C,30,1.41539,29,122.11,8,-5.78428,0\C,31,1.40212,30,123.24,29,139.351,0\C,5,1.4165,4,122.544,2,-141.338,0\C,33,1.39091,5,123.439,4,142.661,0\C,34,1.40277,33,116.734,5,-11.3013,0\C,35,1.37292,34,121.635,33,-130.813,0\C,35,1.41323,34,122.047,33,6.75942,0\C,36,1.41572,35,109.784,34,146.48,0\C,38,1.38988,36,109.605,35,1.58581,0\C,39,1.4026,38,124.136,36,-141.62,0\C,40,1.39404,39,120.108,38,129.948,0\C,13,1.41688,11,112.332,10,-145.274,0\C,42,1.36383,13,121.469,11,139.473,0\C,43,1.39772,42,123.263,13,-140.907,0\C,42,1.40464,13,104.11,11,-1.61574,0\C,44,1.41423,43,116.416,42,13.3413,0\C,41,1.4207,40,106.548,39,-140.244,0\C,36,1.42083,35,123.308,34,-3.34021,0\C,26,1.42368,25,121.233,24,-2.96769,0\C,49,1.31491,26,122.421,25,141.328,0\C,50,1.38283,49,112.113,26,-147.561,0\C,49,1.41243,26,120.444,25,-0.178259,0\C,15,1.42431,14,121.742,9,-6.21769,0\C,53,1.38618,15,117.858,14,136.533,0\C,54,1.38021,53,111.147,15,-139.713,0\C,54,1.4222,53,121.201,15,8.0377,0\C,56,1.35827,54,121.208,53,-138.432,0\C,55,1.42776,54,122.787,53,145.717,0\C,48,1.49658,36,123.122,35,-1.01903,0\C,44,1.51424,43,111.684,42,155.763,0\C,60,1.48183,44,130.719,43,152.271,0\C,61,1.54008,60,124.805,44,-7.88573,0\C,62,1.40201,61,118.238,60,114.98,0\H,63,1.08572,62,123.774,61,2.83175,0\C,63,1.41111,62,120.148,61,169.66,0\H,65,1.0861,63,121.119,62,-170,0\C,65,1.40051,63,121.329,62,4.95343,0\H,67,1.08628,65,123.567,63,-172.825,0\C,67,1.36357,65,116.804,63,6.00353,0\H,69,1.08601,67,115.828,65,178.341,0\C,69,1.37519,67,122.086,65,-15.6471,0\H,71,1.08629,69,113.96,67,-176.032,0\C,61,1.59366,60,117.502,44,-154.681,0\H,73,1.09699,61,108.477,60,106.286,0\H,73,1.09704,61,106.766,60,2.56829,0\C,73,1.51893,61,118.771,60,-128.519,0\H,76,1.09677,73,108.634,61,-52.782,0\H,76,1.09774,73,108.67,61,63.8701,0\C,76,1.57594,73,112.976,61,-174.146,0\H,79,1.09675,76,116.571,73,49.4928,0\H,79,1.09774,76,102.945,73,-63.6497,0\C,79,1.5121,76,114.165,73,-178.157,0\O,82,1.21571,79,117.293,76,-113.885,0\O,82,1.368,79,116.502,76,73.039,0\C,84,1.42885,82,120.345,79,164.206,0\H,85,1.09636,84,106.608,82,76.5776,0\H,85,1.09682,84,112.522,82,-156.817,0\H,85,1.09706,84,120.261,82,-33.6623,0\C,41,3.10823,40,96.6867,39,94.5096,0\C,89,1.35279,41,97.3296,40,-71.867,0\C,90,1.39528,89,118.9,41,-82.8347,0\C,91,1.38871,90,121.014,89,-142.126,0\C,91,1.39555,90,122.711,89,-0.621985,0\C,89,1.40123,41,77.3903,40,165.206,0\C,94,1.40343,89,116.938,41,-136.863,0\C,93,1.41518,91,116.182,90,2.88094,0\C,96,1.41577,93,117.48,91,-139.463,0\C,97,1.41027,96,107.946,93,141.39,0\C,98,1.38737,97,117.628,96,-135.402,0\C,99,1.34606,98,122.082,97,135.063,0\C,100,1.37432,99,111.001,98,-154.394,0\C,100,1.37819,99,122.963,98,-0.173624,0\C,102,1.36349,100,118.4,99,-7.32586,0\C,103,1.4018,102,108.668,100,-141.75,0\C,104,1.36149,103,108.436,102,-0.290251,0\C,105,1.40444,104,120.279,103,142.521,0\C,106,1.40252,105,118.981,104,-5.13008,0\C,107,1.37974,106,109.985,105,-136.274,0\C,99,1.40791,98,122.889,97,-11.8303,0\C,109,1.36593,99,118.364,98,9.90956,0\C,110,1.38966,109,120.289,99,-2.27234,0\C,101,1.41494,100,119.312,99,148.701,0\C,112,1.4027,101,119.62,100,-0.0386127,0\C,113,1.37046,112,110.266,101,-139.668,0\C,113,1.38531,112,120.736,101,5.64137,0\C,111,1.4155,110,107.631,109,139.44,0\C,116,1.34446,111,123.024,110,-143.478,0\C,117,1.35845,116,122.759,111,136.33,0\C,116,1.38936,111,107.289,110,0.930849,0\C,119,1.37885,116,110.033,111,-2.87374,0\C,119,1.38971,116,118.904,111,-145.59,0\C,118,1.39042,117,120.959,116,5.92625,0\C,121,1.40813,119,117.899,116,136.47,0\C,122,1.41165,118,120.312,117,-137.586,0\C,124,1.40763,122,109.254,118,137.907,0\C,125,1.39632,124,120.85,122,-141.42,0\C,126,1.37095,125,120.764,124,-3.07764,0\C,127,1.39524,126,118.423,125,0.331164,0\C,126,1.40035,125,120.247,124,144.561,0\C,129,1.40887,126,121.553,125,-8.829,0\C,130,1.38396,129,116.985,126,3.0543,0\C,131,1.34288,130,109.481,129,-145.817,0\C,132,1.38862,131,109.083,130,2.50233,0\C,133,1.40587,132,118.488,131,134.784,0\C,127,1.4136,126,108.187,125,150.254,0\C,135,1.36528,127,116.363,126,-143.287,0\C,135,1.3761,127,105.371,126,-1.70428,0\C,104,1.41601,103,113.642,102,144.398,0\C,138,1.40496,104,113.315,103,-138.304,0\C,139,1.39056,138,105.225,104,144.772,0\C,140,1.41244,139,122.004,138,-146.045,0\C,141,1.37274,140,119.158,139,136.915,0\C,114,1.41717,113,107.089,112,1.80685,0\C,136,1.41985,135,119.492,127,135.021,0\C,124,1.42215,122,119.389,118,-7.0326,0\C,112,1.42752,101,121.473,100,-145.438,0\C,108,1.43659,107,119.935,106,147.762,0\C,133,1.47215,132,110.739,131,-7.65184,0\C,148,1.51693,133,128.207,132,-147.349,0\C,149,1.5119,148,119.637,133,140.472,0\C,150,1.33317,149,110.307,148,125.142,0\H,151,1.08589,150,122.491,149,4.59834,0\C,150,1.41533,149,127.944,148,-48.9064,0\H,153,1.08597,150,116.561,149,0.792668,0\C,153,1.42649,150,119.147,149,-176.506,0\H,155,1.08602,153,120.441,150,176.128,0\C,155,1.40562,153,118.014,150,-9.13005,0\H,157,1.08525,155,119.937,153,-178.981,0\C,157,1.4148,155,121.472,153,-0.795453,0\H,159,1.08523,157,124.671,155,-179.24,0\C,149,1.61695,148,118.683,133,-5.91184,0\H,161,1.09654,149,107.91,148,-145.844,0\H,161,1.09671,149,111.713,148,-34.9693,0\C,161,1.49897,149,115.604,148,93.3052,0\H,164,1.09631,161,103.829,149,-47.677,0\H,164,1.0969,161,114.99,149,63.4775,0\C,164,1.51813,161,116.147,149,-173.305,0\H,167,1.09706,164,115.123,161,50.5985,0\H,167,1.09737,164,107.486,161,165.269,0\C,167,1.54164,164,115.762,161,-73.565,0\O,170,1.24987,167,121.195,164,132.324,0\O,170,1.33915,167,115.612,164,-48.5518,0\C,172,1.4168,170,120.754,167,179.583,0\H,173,1.0961,172,109.214,170,-53.6256,0\H,173,1.09688,172,117.182,170,55.6646,0\H,173,1.09746,172,113.344,170,-178.168,0\\\@

 Total job time:  840.52s(wall), 7109.13s(cpu) 
 Sun Oct  7 11:47:15 2018

        *************************************************************
        *                                                           *
        *  Thank you very much for using Q-Chem.  Have a nice day.  *
        *                                                           *
        *************************************************************


