
Running Job 1 of 1 ./8/4.qcin
qchem ./8/4.qcin_11281.0 /tmpu/cab_g/afmv_a/scratch_qchem/qchem11281/ 1
/tmpu/appuserlic/qchem4.4/serial-multicore/exe/qcprog.exe_s ./8/4.qcin_11281.0 /tmpu/cab_g/afmv_a/scratch_qchem/qchem11281/
Check license passed

                  Welcome to Q-Chem
     A Quantum Leap Into The Future Of Chemistry


 Q-Chem 4.4, Q-Chem, Inc., Pleasanton, CA (2016)

 Y. Shao,  Z. Gan,  E. Epifanovsky,  A. T. B. Gilbert,  M. Wormit,  
 J. Kussmann,  A. W. Lange,  A. Behn,  J. Deng,  X. Feng,  D. Ghosh,  
 M. Goldey,  P. R. Horn,  L. D. Jacobson,  I. Kaliman,  F. Rob,  
 R. Z. Khaliullin,  T. Kus,  A. Landau,  J. Liu,  E. I. Proynov,  Y. M. Rhee,  
 R. M. Richard,  M. A. Rohrdanz,  R. P. Steele,  E. J. Sundstrom,  
 H. L. Woodcock III,  P. M. Zimmerman,  D. Zuev,  B. Albrecht,  E. Alguire,  
 B. Austin,  S. A. Baeppler,  G. J. O. Beran,  Y. A. Bernard,  E. Berquist,  
 K. Brandhorst,  K. B. Bravaya,  S. T. Brown,  D. Casanova,  C.-M. Chang,  
 Y. Chen,  S. H. Chien,  K. D. Closser,  M. P. Coons,  D. L. Crittenden,  
 S. Dasgupta,  M. Diedenhofen,  R. A. DiStasio Jr.,  H. Do,  A. D. Dutoi,  
 R. G. Edgar,  P.-T. Fang,  S. Fatehi,  Q. Feng,  L. Fusti-Molnar,  
 A. Ghysels,  A. Golubeva-Zadorozhnaya,  J. Gomes,  A. Gunina,  
 M. W. D. Hanson-Heine,  P. H. P. Harbach,  A. W. Hauser,  J. E. Herr,  
 E. G. Hohenstein,  Z. C. Holden,  K. Hui,  T.-C. Jagau,  H. Ji,  B. Kaduk,  
 K. Khistyaev,  Jaehoon Kim,  Jihan Kim,  R. A. King,  P. Klunzinger,  
 K. Koh,  D. Kosenkov,  T. Kowalczyk,  C. M. Krauter,  A. Kunitsa,  
 K. U. Lao,  A. Laurent,  K. V. Lawler,  J. Lee,  D. Lefrancois,  S. Lehtola,  
 S. V. Levchenko,  C. Y. Lin,  Y.-S. Lin,  F. Liu,  E. Livshits,  
 R. C. Lochan,  A. Luenser,  P. Manohar,  S. F. Manzer,  S.-P. Mao,  Y. Mao,  
 N. Mardirossian,  A. V. Marenich,  L. A. Martinez-Martinez,  S. A. Maurer,  
 N. J. Mayhall,  J.-M. Mewes,  A. F. Morrison,  K. Nanda,  T. S. Nguyen-Beck,  
 C. M. Oana,  R. Olivares-Amaya,  D. P. O'Neill,  J. A. Parkhill,  
 T. M. Perrine,  R. Peverati,  P. A. Pieniazek,  F. Plasser,  A. Prociuk,  
 D. R. Rehn,  E. Rosta,  N. J. Russ,  N. Sergueev,  S. M. Sharada,  
 S. Sharma,  D. W. Small,  A. Sodt,  T. Stauch,  T. Stein,  D. Stuck,  
 Y.-C. Su,  A. J. W. Thom,  T. Tsuchimochi,  L. Vogt,  O. Vydrov,  T. Wang,  
 M. A. Watson,  J. Wenzel,  A. White,  C. F. Williams,  V. Vanovschi,  
 K. Yao,  S. Yeganeh,  S. R. Yost,  Z.-Q. You,  I. Y. Zhang,  X. Zhang,  
 Y. Zhao,  B. R. Brooks,  G. K. L. Chan,  D. M. Chipman,  C. J. Cramer,  
 W. A. Goddard III,  M. S. Gordon,  W. J. Hehre,  A. Klamt,  
 H. F. Schaefer III,  M. W. Schmidt,  C. D. Sherrill,  D. G. Truhlar,  
 A. Warshel,  X. Xu,  A. Aspuru-Guzik,  R. Baer,  A. T. Bell,  N. A. Besley,  
 J.-D. Chai,  A. Dreuw,  B. D. Dunietz,  T. R. Furlani,  S. R. Gwaltney,  
 C.-P. Hsu,  Y. Jung,  J. Kong,  D. S. Lambrecht,  W. Liang,  C. Ochsenfeld,  
 V. A. Rassolov,  L. V. Slipchenko,  J. E. Subotnik,  T. Van Voorhis,  
 J. M. Herbert,  A. I. Krylov,  P. M. W. Gill,  M. Head-Gordon

 Contributors to earlier versions of Q-Chem not listed above: 
 R. D. Adamson,  J. Baker,  E. F. C. Byrd,  A. K. Chakraborty,  C.-L. Cheng,  
 H. Dachsel,  R. J. Doerksen,  G. Hawkins,  A. Heyden,  S. Hirata,  
 G. Kedziora,  F. J. Keil,  C. Kelley,  P. P. Korambath,  W. Kurlancheek,  
 A. M. Lee,  M. S. Lee,  D. Liotard,  I. Lotan,  P. E. Maslen,  N. Nair,  
 D. Neuhauser,  R. Olson,  B. Peters,  J. Ritchie,  N. E. Schultz,  
 N. Shenvi,  A. C. Simmonett,  K. S. Thanthiriwatte,  Q. Wu,  W. Zhang

 Please cite Q-Chem as follows:
 Y. Shao et al., Mol. Phys. 113, 184-215 (2015)
 DOI: 10.1080/00268976.2014.952696

 Q-Chem 4.4.2 for Intel X86 Linux

 Parts of Q-Chem use Armadillo 5.200.1 (Boston Tea Smuggler).
 http://arma.sourceforge.net/

 Q-Chem begins on Sun Oct  7 12:16:21 2018  

Host: 
0

     Scratch files written to /tmpu/cab_g/afmv_a/scratch_qchem/qchem11281//
 Dec716 11556_ 22328  22283 4050   
Processing $rem in /tmpu/appuserlic/qchem4.4/serial-multicore/config/preferences.
 MEM_TOTAL  2000 
FILE_GEOM_ORG=        593

Checking the input file for inconsistencies... 	...done.

--------------------------------------------------------------
User input:
--------------------------------------------------------------
$comment
SP
$end

$rem
MEM_STATIC 5000
MEM_TOTAL 20000
JOBTYPE SP
EXCHANGE B3LYP
BASIS 6-31g(d,p)
$end

$molecule
0 1
O         -13.336000     -2.169000      6.429000
C         -14.631000     -1.830000      7.009000
H         -15.398000     -2.609000      6.921000
H         -15.068000     -0.949000      6.523000
H         -14.515000     -1.631000      8.082000
O         -14.130000     -2.189000      4.211000
C         -13.199000     -2.243000      5.054000
C         -11.774000     -2.615000      4.586000
H         -11.120000     -2.252000      5.388000
H         -11.498000     -1.951000      3.757000
C         -11.656000     -4.136000      4.325000
H         -10.584000     -4.211000      4.101000
H         -11.889000     -4.749000      5.205000
C         -12.477000     -4.548000      3.102000
H         -13.535000     -4.508000      3.391000
H         -12.205000     -3.780000      2.367000
C         -12.161000     -5.933000      2.585000
C         -12.219000     -6.977000      3.666000
C         -13.482000     -7.472000      4.063000
H         -14.336000     -7.089000      3.513000
C         -13.536000     -8.546000      4.980000
H         -14.502000     -9.013000      5.152000
C         -12.396000     -8.800000      5.722000
H         -12.468000     -9.459000      6.582000
C         -11.140000     -8.338000      5.429000
H         -10.270000     -8.685000      5.979000
C         -11.059000     -7.356000      4.376000
H         -10.088000     -6.921000      4.160000
C          -8.584000     -8.934000     -0.449000
C         -10.787000     -9.997000     -0.727000
C         -11.477000     -8.759000     -5.098000
C          -9.087000     -3.986000     -1.569000
C         -13.654000     -6.087000     -4.336000
C          -9.890000     -9.319000      0.052000
C         -11.028000     -3.682000     -3.596000
C          -9.502000     -9.520000     -3.948000
C         -13.872000     -7.434000     -0.493000
C         -10.409000     -3.561000     -1.288000
C         -12.547000     -6.290000      1.155000
C         -14.026000     -6.072000     -0.769000
C         -12.589000     -3.880000     -1.725000
C         -11.893000     -4.384000     -4.449000
C         -12.053000     -8.620000      0.585000
C         -11.674000     -6.483000     -5.649000
C         -11.099000     -6.090000      1.493000
C         -10.343000     -5.007000      0.742000
C         -12.868000     -6.966000     -5.180000
C          -8.021000     -6.357000     -3.921000
C          -9.473000     -7.453000     -5.281000
C          -8.829000     -8.420000     -4.468000
C          -9.209000     -9.936000     -2.619000
C          -9.093000     -5.450000      0.344000
C         -12.957000     -7.599000      0.581000
C         -10.428000    -10.305000     -2.077000
C         -11.396000     -3.427000     -2.260000
C         -12.092000     -9.575000     -0.452000
C         -14.172000     -5.655000     -2.136000
C          -7.706000     -5.754000     -1.596000
C         -10.848000     -9.728000     -4.275000
C         -13.209000     -5.342000      0.139000
C          -7.624000     -8.106000     -2.336000
C         -13.440000     -4.532000     -2.611000
C         -13.882000     -8.376000     -1.504000
C          -9.786000     -5.052000     -4.994000
C          -9.748000     -4.096000     -3.939000
C         -14.123000     -7.935000     -2.879000
C          -8.503000     -4.920000     -0.761000
C         -11.009000     -4.147000     -0.084000
C          -7.871000     -5.349000     -2.920000
C         -10.123000     -7.268000      1.267000
C         -12.695000     -9.702000     -2.802000
C         -12.410000     -4.313000     -0.402000
C         -14.202000     -6.608000     -3.163000
C          -7.497000     -7.121000     -1.286000
C         -12.788000     -8.351000     -4.882000
C          -8.326000     -9.217000     -1.830000
C         -10.829000     -7.629000     -5.600000
C         -13.047000     -9.452000     -1.454000
C         -13.415000     -8.826000     -3.682000
C         -10.651000     -8.478000      0.786000
C          -8.949000     -6.804000      0.642000
C          -8.944000     -6.215000     -4.929000
C         -11.405000    -10.171000     -3.102000
C         -13.128000     -4.819000     -3.955000
C          -8.782000     -4.253000     -2.894000
C         -11.150000     -5.213000     -5.294000
C          -8.156000     -7.639000     -0.185000
C          -7.878000     -7.735000     -3.684000
O          -3.094000     -4.648000    -13.608000
C          -2.923000     -4.583000    -15.022000
H          -3.676000     -3.935000    -15.486000
H          -2.986000     -5.538000    -15.557000
H          -2.009000     -4.015000    -15.236000
O          -3.618000     -2.408000    -13.383000
C          -3.397000     -3.505000    -12.937000
C          -3.636000     -3.808000    -11.402000
H          -2.757000     -3.476000    -10.835000
H          -3.566000     -4.887000    -11.216000
C          -4.826000     -3.073000    -10.791000
H          -4.867000     -2.041000    -11.163000
H          -5.802000     -3.496000    -11.057000
C          -4.832000     -2.923000     -9.354000
H          -3.985000     -2.274000     -9.102000
H          -5.711000     -2.338000     -9.058000
C          -4.958000     -4.237000     -8.532000
C          -6.201000     -4.982000     -8.859000
C          -6.206000     -5.851000     -9.914000
H          -5.305000     -6.013000    -10.497000
C          -7.351000     -6.635000    -10.152000
H          -7.259000     -7.378000    -10.939000
C          -8.540000     -6.383000     -9.366000
H          -9.485000     -6.904000     -9.483000
C          -8.524000     -5.395000     -8.438000
H          -9.446000     -5.186000     -7.904000
C          -7.364000     -4.710000     -8.166000
H          -7.272000     -4.016000     -7.336000
C          -4.800000     -6.213000     -3.420000
C          -4.074000     -8.144000     -4.764000
C           0.378000     -8.060000     -3.593000
C          -1.889000     -2.141000     -4.481000
C           1.412000     -6.440000     -6.497000
C          -4.824000     -6.938000     -4.618000
C           0.695000     -3.027000     -5.188000
C          -1.689000     -7.807000     -2.279000
C          -2.235000     -6.940000     -8.275000
C          -1.448000     -2.267000     -5.830000
C          -3.647000     -5.055000     -8.216000
C          -1.427000     -5.782000     -8.513000
C          -0.291000     -3.463000     -7.405000
C           1.510000     -4.200000     -5.403000
C          -4.205000     -7.104000     -6.861000
C           1.554000     -6.293000     -4.074000
C          -4.395000     -4.223000     -7.191000
C          -3.682000     -3.106000     -6.492000
C           1.538000     -7.110000     -5.239000
C          -1.202000     -4.309000     -1.861000
C           0.077000     -6.150000     -2.118000
C          -1.188000     -6.577000     -1.673000
C          -3.067000     -7.757000     -2.636000
C          -4.008000     -3.051000     -5.126000
C          -3.571000     -6.528000     -7.995000
C          -3.104000     -8.522000     -3.790000
C          -0.205000     -2.680000     -6.193000
C          -3.631000     -8.186000     -6.116000
C          -0.081000     -5.802000     -8.059000
C          -3.067000     -3.249000     -2.969000
C          -0.929000     -8.485000     -3.211000
C          -2.215000     -4.572000     -8.494000
C          -3.344000     -5.446000     -1.952000
C           0.488000     -4.636000     -7.574000
C          -1.682000     -8.011000     -7.527000
C           0.854000     -4.065000     -3.232000
C           0.335000     -2.907000     -3.863000
C          -0.344000     -7.991000     -7.157000
C          -3.129000     -2.588000     -4.174000
C          -2.335000     -2.829000     -6.766000
C          -1.731000     -3.243000     -2.603000
C          -5.047000     -4.947000     -6.064000
C          -1.470000     -9.028000     -5.487000
C          -1.617000     -3.505000     -7.764000
C           0.474000     -6.874000     -7.389000
C          -3.863000     -4.359000     -2.668000
C           0.704000     -8.224000     -4.946000
C          -3.915000     -6.615000     -2.392000
C           0.881000     -6.922000     -3.023000
C          -2.386000     -8.651000     -6.473000
C          -0.206000     -8.655000     -5.885000
C          -4.879000     -6.319000     -5.882000
C          -4.926000     -4.167000     -4.865000
C           0.082000     -4.711000     -2.181000
C          -1.830000     -8.966000     -4.151000
C           1.439000     -5.009000     -6.592000
C          -0.981000     -2.481000     -3.498000
C           1.546000     -4.885000     -4.182000
C          -4.787000     -4.801000     -3.608000
C          -1.951000     -5.460000     -1.615000
$end

--------------------------------------------------------------
 ----------------------------------------------------------------
             Standard Nuclear Orientation (Angstroms)
    I     Atom           X                Y                Z
 ----------------------------------------------------------------
    1      O      10.9178666052    -4.0299275455    -4.2910752257
    2      C      12.2647670032    -3.7053351526    -4.7480709548
    3      H      12.8643203958    -3.1143166731    -4.0451435856
    4      H      12.2413776016    -3.1087985555    -5.6683551632
    5      H      12.8263262849    -4.6303615704    -4.9307271880
    6      O      10.1618254056    -1.7995384213    -4.3553096328
    7      C       9.9623853659    -3.0322287304    -4.2103121421
    8      C       8.5859021517    -3.5228974067    -3.7077475082
    9      H       8.5475384156    -4.5780567693    -4.0041525407
   10      H       7.8084046318    -3.0846506746    -4.3463008797
   11      C       8.4400280184    -3.2972652215    -2.1835110258
   12      H       7.4694631419    -3.7794245472    -2.0088364559
   13      H       9.2119962958    -3.8052073004    -1.5914655689
   14      C       8.3508223044    -1.8058962204    -1.8558300178
   15      H       9.3533126979    -1.3811746175    -1.9940673900
   16      H       7.6274110567    -1.4452834149    -2.5978998063
   17      C       7.8817401421    -1.5103440781    -0.4494229443
   18      C       8.6726032012    -2.2573421383     0.5890328900
   19      C       9.9402767679    -1.7575587495     0.9645635714
   20      H      10.2381213950    -0.8224343549     0.5005205296
   21      C      10.6283176916    -2.3766256040     2.0325696186
   22      H      11.5224427993    -1.8857200462     2.4072441774
   23      C      10.2172558259    -3.6469309942     2.3959321900
   24      H      10.8544026217    -4.2358340450     3.0488503759
   25      C       9.0219752197    -4.2218697728     2.0530347226
   26      H       8.7090774034    -5.1691042445     2.4827448716
   27      C       8.2349596135    -3.5072004382     1.0785870956
   28      H       7.3118882562    -3.9647297145     0.7360550083
   29      C       3.4192308763    -1.1569631898     2.8622562370
   30      C       5.0419804120     0.4878111033     3.7118817244
   31      C       2.7782707436     4.2638302173     2.3959473840
   32      C       2.7640801482    -0.2739343691    -2.1158107197
   33      C       4.7605550994     4.8466156297    -0.4659517925
   34      C       4.7772167165    -0.7189252655     3.1246666688
   35      C       2.9989275629     2.4954399472    -2.6098133395
   36      C       2.0048504844     2.1891054540     3.3444115421
   37      C       7.4129570077     2.0522358613     0.8707560391
   38      C       3.9402689283     0.2963958395    -2.6622294296
   39      C       7.3205165023    -0.1288980114    -0.1364057067
   40      C       7.2648044501     2.2795909952    -0.5008475708
   41      C       5.3933553190     2.0056279784    -2.5517964768
   42      C       3.1944704001     3.7418906564    -1.9960042256
   43      C       6.7468662107     0.1565921030     2.2273321674
   44      C       2.4278397466     4.6768469546     0.1092026910
   45      C       6.3858351410    -1.3008873465    -0.1977225168
   46      C       5.2522439092    -1.2462485989    -1.2078767260
   47      C       3.6855052826     5.0768186449     0.4795890386
   48      C       0.6403071104     1.0574583419     0.3350835117
   49      C       1.0073007701     3.0883529065     1.2837156434
   50      C       1.0782788553     2.1129117981     2.3104925206
   51      C       2.6309977009     0.9920429033     3.7917670080
   52      C       4.0608894472    -1.6792700797    -0.6508130466
   53      C       7.3773502854     0.6552221664     1.1257283859
   54      C       3.9453902564     1.3431990899     4.0466150855
   55      C       4.0976238565     1.6598607675    -2.8926894411
   56      C       6.2013867624     1.0525256306     3.1700252699
   57      C       6.5002404328     3.4155485907    -0.9355154952
   58      C       1.7951878979    -0.9968499724    -0.2257433035
   59      C       2.8673098789     3.2899425464     3.4233449880
   60      C       7.1388893187     1.0179579231    -1.1468199938
   61      C       1.4391533002    -0.3221798427     2.1203785138
   62      C       5.5539179144     3.2662061829    -1.9865856814
   63      C       6.8600589360     2.9090678578     1.8033479392
   64      C       1.2588761648     2.9084658380    -1.1348561383
   65      C       1.8162421267     1.9989793306    -2.0785629134
   66      C       6.1629761655     4.1085125787     1.3358065263
   67      C       2.8764401674    -1.2104218082    -1.1275584733
   68      C       5.1979860015    -0.2404141367    -2.1302568614
   69      C       1.0730108071     0.1178836931    -0.6500723086
   70      C       5.5675080857    -1.6540235218     1.0659909287
   71      C       5.2219029726     3.2749754457     3.2297439840
   72      C       6.1059767336     0.8847574855    -2.0982779461
   73      C       5.9538025997     4.2979592233     0.0060763326
   74      C       1.9218753386    -1.2845303806     1.1561612790
   75      C       3.9067215538     4.8793633685     1.8672142672
   76      C       2.3804525468    -0.2164142662     3.1624583433
   77      C       1.8802552330     4.1871213175     1.3298836488
   78      C       6.3159169711     2.4204129320     2.9534031054
   79      C       5.1751272830     4.3555145306     2.2861215378
   80      C       5.7671526088    -0.8760057119     2.2188462327
   81      C       4.2299393500    -1.9181850148     0.7119773937
   82      C       0.7247792064     2.4091026287     0.1025341899
   83      C       4.0620287127     2.7420285997     3.8168728970
   84      C       4.4962467218     4.1446344263    -1.6771596490
   85      C       1.7222471392     0.5926906263    -1.8268745695
   86      C       2.1488054549     3.9963577638    -1.1042944558
   87      C       3.1568483273    -1.7083505711     1.6144452121
   88      C       0.7739685983     0.8684580410     1.7214151794
   89      O      -9.3425934771     5.5006076084    -0.9432354844
   90      C     -10.3587302556     6.4992812229    -0.9978162420
   91      H     -10.1051951906     7.2882186346    -1.7158042163
   92      H     -10.5737578596     7.0165571754    -0.0552624141
   93      H     -11.2455355474     6.0671875283    -1.4781155376
   94      O      -8.9533442805     5.5096380397    -3.2216569806
   95      C      -8.7708007353     5.0912615850    -2.1068453390
   96      C      -7.6095002787     4.0544623002    -1.8212170975
   97      H      -7.9672169477     3.0463959430    -2.0665637996
   98      H      -7.4718137309     3.9320724020    -0.7396441100
   99      C      -6.3535122782     4.2654146644    -2.6624300567
  100      H      -6.6259865732     4.5185832816    -3.6952671251
  101      H      -5.7266905853     5.1031020956    -2.3343518147
  102      C      -5.4672035576     3.1334800471    -2.8062559032
  103      H      -6.0181128234     2.3725121630    -3.3715353563
  104      H      -4.6389032556     3.4084457072    -3.4701794647
  105      C      -4.7648594523     2.6481916755    -1.5065005592
  106      C      -3.9445646006     3.7185601861    -0.8832585455
  107      C      -4.5338856541     4.6022820199    -0.0230565830
  108      H      -5.5876927394     4.5125533743     0.2206099867
  109      C      -3.7320487661     5.5447454875     0.6486168623
  110      H      -4.2396461555     6.1506801308     1.3936471290
  111      C      -2.3337820374     5.6477459165     0.2890865197
  112      H      -1.6316592783     6.3555410402     0.7182772629
  113      C      -1.8403820442     4.8494235074    -0.6890861530
  114      H      -0.8039554885     4.9876323477    -0.9817281034
  115      C      -2.6257662482     3.8771570607    -1.2606442067
  116      H      -2.2316108256     3.1268536171    -1.9393829232
  117      C      -1.5731907981    -1.3343465525     0.4971771754
  118      C      -2.8369696946    -0.6101633384     2.4822702647
  119      C      -5.5910874556    -4.2840492435     2.8228561051
  120      C      -4.7943259816    -2.5529066662    -3.2870301893
  121      C      -8.3168328280    -2.7467521715     1.2951775141
  122      C      -2.2467300383    -0.3356917362     1.2116269285
  123      C      -7.1873414206    -3.5406135375    -2.1646161635
  124      C      -3.1796556040    -4.0524745287     2.3818758601
  125      C      -6.5383999683     0.9312251438     1.4419849787
  126      C      -5.9672647637    -1.7602122238    -3.1257598121
  127      C      -5.5337696452     1.6409845926    -0.5673456160
  128      C      -7.3993756773     0.5469916928     0.3642292163
  129      C      -7.7632627111    -1.1666757372    -1.8327803800
  130      C      -7.8735160643    -3.8032013945    -0.9209960544
  131      C      -4.1108987775     1.0502416793     1.4257051371
  132      C      -6.9335832012    -4.7428129011     1.1724418905
  133      C      -4.3726441568     1.2483306948    -1.4617524121
  134      C      -4.5747117809     0.1908726340    -2.5036785731
  135      C      -7.5863248965    -3.7692844631     1.9793747623
  136      C      -3.5493366260    -4.8971199732    -1.0529177312
  137      C      -4.5762273415    -5.3722189270     0.8992470781
  138      C      -3.2820289997    -4.9130247503     1.2070950278
  139      C      -2.3292166533    -2.9242881026     2.2008179161
  140      C      -3.4759311344    -0.6818177136    -2.5833632524
  141      C      -5.3509779273     1.5117926584     0.9071857102
  142      C      -2.9624378727    -1.9496186437     2.9540511688
  143      C      -7.1335579010    -2.2181961214    -2.5990738836
  144      C      -4.0193139319     0.1784576941     2.5600903887
  145      C      -8.1667391461    -0.6393080075     0.5128169947
  146      C      -2.8569942733    -2.9417546432    -2.2885137384
  147      C      -4.3033658577    -3.7496456557     3.1244914669
  148      C      -6.8586184564     0.9442432651    -0.9145114988
  149      C      -1.8528171248    -3.4320429947    -0.1230870860
  150      C      -8.3927717133    -1.4430763091    -0.5923562025
  151      C      -6.4293427662     0.0693856877     2.5634542287
  152      C      -6.0229658379    -5.1079216806    -1.1080009605
  153      C      -6.0921075117    -4.3641738588    -2.3123865327
  154      C      -7.2454695013    -1.0485995488     2.6711118485
  155      C      -3.6039099087    -1.9997544114    -2.9574999840
  156      C      -5.8160564190    -0.4437580710    -2.6537497485
  157      C      -3.6730466963    -4.0545038983    -2.1671237125
  158      C      -3.1123220741     0.8125313038    -0.7976167795
  159      C      -5.2556749309    -1.5978100405     3.6045090860
  160      C      -6.9481062686    -0.0633682719    -1.9173594045
  161      C      -8.1076061066    -1.4411820730     1.6351405963
  162      C      -1.9696839103    -2.6172828491    -1.2571479572
  163      C      -6.6740341831    -3.4148152463     3.0111103043
  164      C      -1.5970669392    -2.6621263185     0.9850745242
  165      C      -5.7108252510    -5.1119336962     1.7397018255
  166      C      -5.1797398198    -0.2822526679     3.1387584466
  167      C      -6.5160628058    -2.0898908450     3.3505250577
  168      C      -3.0327553307     0.6508243386     0.5848635968
  169      C      -2.5177973038    -0.2502398164    -1.5576824632
  170      C      -4.7217171150    -5.4148217160    -0.5331399954
  171      C      -4.1494805600    -2.4264095943     3.5145269025
  172      C      -8.4987967569    -2.7773713917    -0.1273085462
  173      C      -4.8685137338    -3.8634551469    -2.8588808496
  174      C      -7.0946604265    -4.7401954236    -0.2304976222
  175      C      -1.8006216862    -1.2822446932    -0.9081048559
  176      C      -2.7299476695    -4.5560448481     0.0234592924
 ----------------------------------------------------------------
 Molecular Point Group                 C1    NOp =  1
 Largest Abelian Subgroup              C1    NOp =  1
 Nuclear Repulsion Energy = 34415.1796319423 hartrees
 There are      462 alpha and      462 beta electrons
 Requested basis set is 6-31G(d,p)
 There are 676 shells and 2360 basis functions

 Total QAlloc Memory Limit  20000 MB
 Mega-Array Size      4888 MB
 MEM_STATIC part      5000 MB
 A cutoff of  1.0D-08 yielded  37553 shell pairs
 There are    529319 function pairs
 
 -------------------------------------------------------
 OpenMP Integral Computing Module                       
 Release: version 1.0, May 2013, Q-Chem Inc. Pittsburgh 
 -------------------------------------------------------
 Integral Job Info:
 Integral job number is                      11
 Integral operator is                         1
 short-range coefficients                     0
 long-range coefficients              100000000
 Omega coefficients                           0
 if combine SR and LR in K                    0
 Integral screening is                        0
 Integral computing path is                   2
 max size of driver memory is            800000
 size of driver memory is                593474
 size of scratch memory is              2260544
 max col of scratch BK array               1296
 max len of scratch array in speh3          155
 max len of scratch index in speh4           18
 max int batch size is                      520
 min int batch size is                       52
 fixed nKL is                                52
 max L of basis functions is                  2
 order of int derivative is                   0
 number of shells is                        676
 number of basis is                        2360
 number of cartesian basis is              2360
 number of contracted shell pairs         37553
 number of primitive shell pairs         113846
 maxK2 (contraction) of shell pair           36
 max number of K2 of shell pair               1
 max number of CS2 of shell pair           7217
 max number of PS2 of shell pair          34440
 mem total for path MDJ                 1507368
 -------------------------------------------------------
 Smallest overlap matrix eigenvalue = 2.44E-04

 Scale SEOQF with 1.000000e-02/1.000000e-02/1.000000e-02

 Standard Electronic Orientation quadrupole field applied
 Nucleus-field energy     =     0.0000001295 hartrees
 Guess from superposition of atomic densities
 Warning:  Energy on first SCF cycle will be non-variational
 A restricted hybrid HF-DFT SCF calculation will be
 performed using Pulay DIIS extrapolation
 Exchange:     0.2000 Hartree-Fock + 0.0800 Slater + 0.7200 B88
 Correlation:  0.1900 VWN1RPA + 0.8100 LYP
 Using SG-1 standard quadrature grid
 SCF converges when DIIS error is below 1.0E-05
 using 16 threads for integral computing 
 -------------------------------------------------------
 OpenMP BLAS3 based DFT computing Module                
 Release: version 1.0, May 2013, Q-Chem Inc. Pittsburgh 
 -------------------------------------------------------
 ---------------------------------------
  Cycle       Energy         DIIS Error
 ---------------------------------------
    1   -5858.2996294526      1.83E-02
    2   -5803.1050801040      1.30E-03
    3   -5802.2521274453      1.83E-03
    4   -5803.9899985689      6.38E-04
    5   -5804.2077765674      2.83E-04
    6   -5804.2543098105      1.41E-04
    7   -5804.2677483922      4.80E-05
    8   -5804.2688282186      2.91E-05
    9   -5804.2694571359      8.41E-06 Convergence criterion met
 ---------------------------------------
 SCF time:  CPU 7212.04 s  wall 834.39 s
 SCF   energy in the final basis set = -5804.2694571359
 Total energy in the final basis set = -5804.2694571359
 
 --------------------------------------------------------------
 
                    Orbital Energies (a.u.)
 --------------------------------------------------------------
 
 Alpha MOs
 -- Occupied --
-19.204 -19.200 -19.140 -19.139 -10.325 -10.322 -10.252 -10.246
-10.240 -10.238 -10.236 -10.236 -10.234 -10.231 -10.229 -10.228
-10.228 -10.226 -10.225 -10.224 -10.224 -10.223 -10.223 -10.222
-10.222 -10.221 -10.221 -10.221 -10.221 -10.220 -10.220 -10.219
-10.219 -10.219 -10.218 -10.218 -10.218 -10.218 -10.218 -10.218
-10.218 -10.218 -10.217 -10.217 -10.217 -10.217 -10.217 -10.217
-10.217 -10.217 -10.216 -10.216 -10.216 -10.216 -10.216 -10.216
-10.216 -10.216 -10.215 -10.215 -10.215 -10.215 -10.215 -10.215
-10.215 -10.215 -10.215 -10.215 -10.214 -10.214 -10.214 -10.214
-10.214 -10.214 -10.214 -10.214 -10.214 -10.214 -10.214 -10.213
-10.213 -10.213 -10.213 -10.213 -10.213 -10.213 -10.213 -10.213
-10.213 -10.213 -10.212 -10.212 -10.212 -10.212 -10.212 -10.212
-10.212 -10.212 -10.212 -10.211 -10.211 -10.211 -10.211 -10.211
-10.211 -10.211 -10.211 -10.211 -10.211 -10.210 -10.210 -10.210
-10.210 -10.210 -10.210 -10.209 -10.209 -10.208 -10.208 -10.208
-10.208 -10.208 -10.208 -10.207 -10.207 -10.207 -10.206 -10.206
-10.206 -10.204 -10.204 -10.202 -10.202 -10.202 -10.202 -10.201
-10.201 -10.200 -10.199 -10.198 -10.196 -10.196 -10.195 -10.193
-10.192 -10.190 -10.187 -10.182  -1.101  -1.082  -1.024  -0.999
 -0.981  -0.981  -0.966  -0.963  -0.962  -0.960  -0.959  -0.957
 -0.932  -0.930  -0.928  -0.926  -0.926  -0.923  -0.921  -0.920
 -0.919  -0.917  -0.896  -0.896  -0.890  -0.886  -0.884  -0.882
 -0.874  -0.872  -0.854  -0.854  -0.842  -0.840  -0.839  -0.838
 -0.836  -0.831  -0.821  -0.820  -0.806  -0.806  -0.798  -0.796
 -0.795  -0.795  -0.793  -0.791  -0.789  -0.788  -0.784  -0.783
 -0.772  -0.769  -0.768  -0.766  -0.766  -0.765  -0.763  -0.761
 -0.751  -0.749  -0.745  -0.743  -0.734  -0.731  -0.715  -0.714
 -0.714  -0.713  -0.711  -0.711  -0.711  -0.710  -0.709  -0.708
 -0.705  -0.705  -0.704  -0.704  -0.702  -0.701  -0.671  -0.669
 -0.659  -0.657  -0.655  -0.653  -0.646  -0.646  -0.631  -0.630
 -0.628  -0.625  -0.624  -0.623  -0.621  -0.620  -0.616  -0.615
 -0.613  -0.613  -0.613  -0.612  -0.611  -0.610  -0.609  -0.608
 -0.607  -0.602  -0.600  -0.598  -0.573  -0.570  -0.563  -0.562
 -0.560  -0.560  -0.557  -0.556  -0.555  -0.553  -0.552  -0.548
 -0.536  -0.536  -0.532  -0.531  -0.529  -0.527  -0.523  -0.523
 -0.522  -0.521  -0.519  -0.519  -0.514  -0.513  -0.512  -0.512
 -0.505  -0.504  -0.501  -0.500  -0.492  -0.490  -0.485  -0.484
 -0.482  -0.482  -0.481  -0.481  -0.478  -0.477  -0.475  -0.472
 -0.472  -0.471  -0.470  -0.469  -0.468  -0.467  -0.466  -0.466
 -0.465  -0.464  -0.463  -0.462  -0.462  -0.461  -0.458  -0.457
 -0.457  -0.456  -0.452  -0.450  -0.448  -0.445  -0.444  -0.442
 -0.442  -0.440  -0.439  -0.438  -0.437  -0.436  -0.435  -0.433
 -0.431  -0.429  -0.428  -0.427  -0.427  -0.425  -0.424  -0.423
 -0.422  -0.422  -0.421  -0.420  -0.419  -0.419  -0.417  -0.416
 -0.416  -0.416  -0.415  -0.414  -0.414  -0.413  -0.412  -0.410
 -0.410  -0.409  -0.408  -0.407  -0.403  -0.399  -0.397  -0.395
 -0.392  -0.389  -0.388  -0.388  -0.387  -0.387  -0.383  -0.383
 -0.378  -0.375  -0.373  -0.371  -0.368  -0.367  -0.366  -0.366
 -0.365  -0.363  -0.363  -0.361  -0.360  -0.359  -0.358  -0.358
 -0.357  -0.356  -0.355  -0.354  -0.354  -0.353  -0.351  -0.350
 -0.350  -0.349  -0.349  -0.347  -0.347  -0.344  -0.344  -0.343
 -0.342  -0.342  -0.341  -0.338  -0.337  -0.334  -0.333  -0.332
 -0.331  -0.330  -0.329  -0.328  -0.325  -0.324  -0.322  -0.320
 -0.309  -0.307  -0.303  -0.301  -0.286  -0.281  -0.274  -0.271
 -0.270  -0.269  -0.267  -0.265  -0.265  -0.264  -0.263  -0.262
 -0.262  -0.261  -0.260  -0.258  -0.257  -0.256  -0.255  -0.254
 -0.250  -0.247  -0.243  -0.240  -0.223  -0.217  -0.213  -0.210
 -0.210  -0.209  -0.206  -0.204  -0.201  -0.196
 -- Virtual --
 -0.123  -0.121  -0.118  -0.117  -0.112  -0.104  -0.079  -0.075
 -0.074  -0.071  -0.062  -0.058  -0.055  -0.052  -0.024  -0.023
 -0.021  -0.020  -0.019  -0.018  -0.017  -0.014  -0.012  -0.012
 -0.011  -0.009  -0.008  -0.007  -0.007  -0.005  -0.001   0.008
  0.009   0.014   0.035   0.038   0.038   0.044   0.045   0.047
  0.050   0.052   0.054   0.056   0.063   0.064   0.066   0.068
  0.070   0.076   0.080   0.083   0.084   0.086   0.087   0.093
  0.096   0.097   0.098   0.102   0.102   0.103   0.104   0.106
  0.108   0.109   0.111   0.114   0.116   0.118   0.120   0.121
  0.122   0.123   0.124   0.128   0.129   0.130   0.134   0.135
  0.140   0.140   0.143   0.149   0.150   0.152   0.152   0.156
  0.157   0.160   0.162   0.162   0.165   0.167   0.168   0.169
  0.172   0.173   0.174   0.175   0.176   0.177   0.180   0.182
  0.183   0.185   0.186   0.188   0.189   0.190   0.190   0.193
  0.195   0.198   0.199   0.200   0.201   0.205   0.207   0.208
  0.211   0.214   0.215   0.216   0.217   0.218   0.219   0.220
  0.222   0.224   0.224   0.227   0.227   0.228   0.228   0.230
  0.232   0.233   0.235   0.236   0.237   0.239   0.241   0.243
  0.245   0.246   0.248   0.250   0.251   0.253   0.260   0.262
  0.265   0.267   0.270   0.272   0.275   0.277   0.278   0.281
  0.283   0.284   0.287   0.292   0.295   0.297   0.299   0.301
  0.308   0.310   0.312   0.312   0.315   0.315   0.316   0.318
  0.319   0.320   0.324   0.326   0.328   0.329   0.331   0.332
  0.334   0.336   0.337   0.342   0.343   0.344   0.345   0.349
  0.352   0.353   0.356   0.368   0.371   0.375   0.386   0.390
  0.395   0.397   0.398   0.400   0.402   0.404   0.404   0.407
  0.408   0.410   0.413   0.415   0.416   0.420   0.422   0.425
  0.427   0.430   0.434   0.437   0.438   0.439   0.441   0.445
  0.448   0.449   0.452   0.456   0.458   0.462   0.464   0.465
  0.466   0.467   0.469   0.470   0.472   0.474   0.475   0.476
  0.476   0.477   0.479   0.481   0.481   0.483   0.485   0.486
  0.488   0.489   0.491   0.491   0.493   0.493   0.494   0.496
  0.497   0.499   0.500   0.501   0.502   0.503   0.503   0.505
  0.505   0.506   0.507   0.508   0.510   0.511   0.511   0.511
  0.512   0.513   0.514   0.515   0.516   0.518   0.518   0.519
  0.519   0.520   0.521   0.521   0.522   0.524   0.524   0.525
  0.526   0.527   0.528   0.528   0.530   0.531   0.531   0.532
  0.533   0.533   0.534   0.534   0.536   0.536   0.537   0.538
  0.539   0.539   0.540   0.541   0.542   0.542   0.544   0.546
  0.546   0.547   0.547   0.548   0.549   0.550   0.550   0.552
  0.553   0.553   0.554   0.554   0.555   0.555   0.556   0.556
  0.557   0.558   0.559   0.559   0.560   0.560   0.562   0.563
  0.563   0.565   0.565   0.567   0.567   0.568   0.569   0.570
  0.571   0.573   0.573   0.574   0.575   0.576   0.576   0.576
  0.579   0.579   0.580   0.581   0.582   0.582   0.583   0.584
  0.585   0.585   0.585   0.587   0.588   0.589   0.590   0.591
  0.592   0.593   0.594   0.595   0.597   0.597   0.598   0.599
  0.599   0.600   0.601   0.603   0.604   0.605   0.606   0.608
  0.609   0.610   0.611   0.612   0.612   0.614   0.614   0.617
  0.618   0.619   0.620   0.621   0.623   0.624   0.626   0.627
  0.628   0.629   0.630   0.631   0.631   0.633   0.634   0.635
  0.635   0.636   0.636   0.637   0.638   0.639   0.640   0.641
  0.644   0.644   0.645   0.646   0.646   0.648   0.649   0.650
  0.652   0.652   0.653   0.654   0.656   0.657   0.658   0.658
  0.660   0.660   0.661   0.662   0.662   0.663   0.664   0.665
  0.666   0.666   0.667   0.668   0.669   0.669   0.671   0.672
  0.673   0.674   0.675   0.677   0.678   0.678   0.679   0.681
  0.682   0.683   0.685   0.686   0.687   0.688   0.689   0.691
  0.692   0.693   0.693   0.693   0.695   0.697   0.698   0.699
  0.700   0.701   0.702   0.703   0.704   0.704   0.707   0.708
  0.709   0.710   0.711   0.713   0.714   0.714   0.717   0.717
  0.720   0.721   0.722   0.722   0.724   0.725   0.726   0.727
  0.728   0.729   0.730   0.731   0.732   0.733   0.734   0.734
  0.738   0.740   0.741   0.742   0.744   0.744   0.745   0.747
  0.748   0.750   0.752   0.753   0.754   0.755   0.757   0.757
  0.761   0.762   0.764   0.764   0.766   0.768   0.769   0.770
  0.770   0.772   0.772   0.774   0.774   0.775   0.776   0.779
  0.780   0.783   0.784   0.785   0.786   0.787   0.788   0.790
  0.791   0.792   0.793   0.794   0.796   0.797   0.798   0.798
  0.800   0.801   0.802   0.802   0.803   0.804   0.805   0.806
  0.807   0.808   0.808   0.809   0.810   0.811   0.812   0.813
  0.813   0.814   0.814   0.815   0.816   0.817   0.818   0.819
  0.820   0.821   0.822   0.823   0.824   0.825   0.826   0.827
  0.828   0.829   0.830   0.831   0.833   0.833   0.834   0.835
  0.836   0.840   0.841   0.843   0.844   0.846   0.849   0.850
  0.853   0.854   0.858   0.859   0.863   0.867   0.869   0.871
  0.874   0.877   0.880   0.883   0.887   0.890   0.892   0.894
  0.895   0.896   0.902   0.906   0.907   0.908   0.910   0.912
  0.913   0.914   0.918   0.920   0.923   0.924   0.926   0.927
  0.928   0.929   0.931   0.933   0.933   0.937   0.938   0.939
  0.941   0.943   0.944   0.947   0.950   0.952   0.953   0.955
  0.956   0.960   0.963   0.966   0.969   0.971   0.973   0.975
  0.977   0.979   0.982   0.985   0.987   0.990   0.991   0.994
  0.995   0.997   0.998   1.003   1.003   1.006   1.006   1.008
  1.010   1.011   1.013   1.015   1.016   1.019   1.021   1.023
  1.027   1.028   1.030   1.031   1.032   1.034   1.035   1.037
  1.038   1.040   1.042   1.043   1.045   1.047   1.048   1.049
  1.050   1.053   1.055   1.057   1.058   1.060   1.060   1.061
  1.062   1.064   1.067   1.068   1.070   1.071   1.073   1.074
  1.076   1.076   1.079   1.080   1.081   1.084   1.085   1.087
  1.088   1.090   1.091   1.092   1.094   1.095   1.096   1.097
  1.100   1.102   1.103   1.105   1.106   1.108   1.110   1.112
  1.113   1.117   1.120   1.122   1.125   1.127   1.128   1.130
  1.133   1.134   1.139   1.141   1.143   1.144   1.146   1.149
  1.150   1.151   1.153   1.154   1.156   1.158   1.159   1.160
  1.162   1.164   1.165   1.166   1.168   1.169   1.169   1.172
  1.174   1.175   1.178   1.179   1.183   1.183   1.185   1.187
  1.188   1.191   1.192   1.194   1.197   1.199   1.200   1.203
  1.205   1.208   1.209   1.213   1.215   1.216   1.219   1.222
  1.222   1.225   1.230   1.235   1.238   1.240   1.244   1.245
  1.248   1.249   1.252   1.254   1.255   1.258   1.259   1.261
  1.262   1.264   1.266   1.267   1.271   1.273   1.273   1.276
  1.276   1.279   1.280   1.283   1.284   1.287   1.290   1.294
  1.295   1.299   1.301   1.305   1.306   1.312   1.313   1.313
  1.315   1.318   1.319   1.321   1.325   1.326   1.329   1.330
  1.332   1.333   1.337   1.341   1.342   1.345   1.346   1.351
  1.352   1.353   1.355   1.357   1.361   1.362   1.365   1.367
  1.370   1.374   1.375   1.378   1.381   1.381   1.387   1.388
  1.389   1.395   1.396   1.398   1.400   1.401   1.404   1.406
  1.406   1.407   1.411   1.417   1.422   1.423   1.426   1.428
  1.429   1.431   1.434   1.435   1.437   1.440   1.442   1.445
  1.447   1.452   1.453   1.456   1.458   1.459   1.460   1.460
  1.462   1.464   1.465   1.466   1.467   1.469   1.471   1.474
  1.476   1.478   1.479   1.481   1.485   1.487   1.490   1.492
  1.496   1.500   1.504   1.505   1.507   1.510   1.514   1.516
  1.518   1.522   1.525   1.527   1.530   1.532   1.536   1.536
  1.538   1.540   1.544   1.545   1.547   1.551   1.553   1.555
  1.557   1.559   1.561   1.562   1.564   1.566   1.567   1.573
  1.574   1.576   1.580   1.580   1.583   1.584   1.586   1.587
  1.589   1.591   1.594   1.596   1.599   1.601   1.603   1.606
  1.614   1.620   1.623   1.631   1.634   1.636   1.638   1.642
  1.645   1.652   1.654   1.656   1.663   1.665   1.666   1.671
  1.674   1.678   1.683   1.684   1.687   1.690   1.695   1.696
  1.698   1.703   1.706   1.709   1.709   1.711   1.715   1.719
  1.721   1.723   1.724   1.726   1.727   1.728   1.730   1.732
  1.733   1.735   1.738   1.739   1.740   1.742   1.743   1.745
  1.747   1.748   1.748   1.750   1.753   1.756   1.756   1.758
  1.760   1.761   1.762   1.763   1.764   1.766   1.768   1.769
  1.769   1.771   1.773   1.773   1.775   1.776   1.777   1.780
  1.781   1.782   1.782   1.783   1.784   1.786   1.788   1.789
  1.792   1.793   1.793   1.795   1.797   1.798   1.800   1.801
  1.802   1.803   1.804   1.806   1.806   1.808   1.810   1.811
  1.811   1.813   1.814   1.814   1.816   1.817   1.819   1.822
  1.825   1.829   1.831   1.833   1.835   1.839   1.840   1.842
  1.844   1.844   1.848   1.849   1.852   1.854   1.857   1.858
  1.859   1.862   1.863   1.865   1.867   1.868   1.870   1.871
  1.872   1.874   1.876   1.878   1.880   1.882   1.883   1.885
  1.888   1.890   1.892   1.894   1.896   1.897   1.901   1.903
  1.908   1.913   1.914   1.917   1.918   1.920   1.923   1.923
  1.927   1.928   1.931   1.932   1.933   1.935   1.937   1.940
  1.941   1.942   1.945   1.945   1.950   1.951   1.954   1.955
  1.959   1.960   1.962   1.968   1.969   1.970   1.972   1.972
  1.973   1.974   1.975   1.978   1.980   1.982   1.985   1.986
  1.988   1.989   1.989   1.993   1.993   1.995   1.997   1.997
  1.999   2.000   2.001   2.003   2.005   2.005   2.006   2.008
  2.008   2.010   2.012   2.014   2.015   2.016   2.017   2.017
  2.019   2.020   2.021   2.022   2.023   2.025   2.027   2.028
  2.029   2.030   2.030   2.032   2.033   2.034   2.034   2.035
  2.037   2.038   2.038   2.039   2.042   2.043   2.045   2.046
  2.048   2.048   2.049   2.050   2.050   2.052   2.055   2.056
  2.057   2.058   2.059   2.060   2.061   2.063   2.066   2.067
  2.070   2.071   2.073   2.074   2.075   2.079   2.080   2.081
  2.082   2.083   2.085   2.086   2.087   2.089   2.090   2.092
  2.094   2.095   2.097   2.098   2.100   2.102   2.105   2.105
  2.108   2.111   2.112   2.116   2.117   2.119   2.121   2.123
  2.126   2.127   2.129   2.131   2.135   2.137   2.142   2.146
  2.151   2.152   2.155   2.158   2.160   2.164   2.166   2.169
  2.174   2.176   2.180   2.184   2.189   2.191   2.196   2.197
  2.202   2.207   2.209   2.213   2.217   2.219   2.221   2.228
  2.231   2.233   2.235   2.239   2.240   2.243   2.246   2.247
  2.248   2.250   2.252   2.255   2.255   2.259   2.262   2.263
  2.267   2.268   2.269   2.272   2.273   2.277   2.283   2.285
  2.286   2.287   2.290   2.293   2.294   2.295   2.298   2.298
  2.302   2.303   2.306   2.309   2.310   2.315   2.319   2.321
  2.321   2.322   2.324   2.325   2.326   2.328   2.333   2.336
  2.339   2.341   2.344   2.347   2.349   2.351   2.356   2.357
  2.358   2.360   2.362   2.365   2.365   2.367   2.369   2.369
  2.372   2.372   2.373   2.374   2.376   2.379   2.379   2.380
  2.381   2.386   2.388   2.390   2.391   2.392   2.393   2.393
  2.395   2.398   2.401   2.403   2.405   2.406   2.408   2.409
  2.409   2.413   2.414   2.416   2.417   2.419   2.419   2.420
  2.421   2.424   2.428   2.430   2.432   2.435   2.438   2.440
  2.443   2.446   2.448   2.448   2.453   2.456   2.457   2.460
  2.460   2.464   2.466   2.468   2.471   2.471   2.473   2.479
  2.479   2.480   2.481   2.482   2.484   2.486   2.488   2.491
  2.494   2.497   2.498   2.502   2.504   2.505   2.506   2.510
  2.512   2.512   2.514   2.516   2.518   2.518   2.520   2.523
  2.525   2.527   2.532   2.533   2.537   2.543   2.544   2.547
  2.547   2.549   2.552   2.555   2.559   2.563   2.566   2.568
  2.570   2.572   2.576   2.579   2.580   2.582   2.590   2.592
  2.593   2.594   2.598   2.599   2.602   2.604   2.605   2.608
  2.609   2.609   2.612   2.615   2.617   2.619   2.620   2.622
  2.622   2.623   2.625   2.626   2.628   2.630   2.632   2.632
  2.633   2.635   2.636   2.638   2.641   2.641   2.641   2.645
  2.647   2.648   2.650   2.652   2.655   2.655   2.659   2.660
  2.660   2.662   2.663   2.664   2.666   2.668   2.668   2.673
  2.674   2.675   2.677   2.680   2.683   2.684   2.686   2.687
  2.688   2.690   2.694   2.695   2.701   2.704   2.706   2.709
  2.711   2.713   2.716   2.718   2.719   2.721   2.723   2.724
  2.726   2.730   2.732   2.735   2.736   2.739   2.741   2.745
  2.746   2.751   2.751   2.753   2.756   2.759   2.760   2.764
  2.765   2.767   2.767   2.769   2.770   2.771   2.774   2.776
  2.777   2.779   2.781   2.786   2.787   2.791   2.795   2.797
  2.799   2.804   2.810   2.811   2.813   2.814   2.822   2.822
  2.824   2.826   2.830   2.834   2.835   2.837   2.840   2.841
  2.844   2.846   2.848   2.849   2.851   2.857   2.858   2.861
  2.862   2.864   2.866   2.867   2.869   2.869   2.872   2.874
  2.875   2.879   2.881   2.884   2.886   2.887   2.888   2.892
  2.894   2.895   2.895   2.896   2.897   2.899   2.902   2.904
  2.907   2.910   2.911   2.913   2.915   2.916   2.918   2.920
  2.923   2.924   2.924   2.926   2.927   2.929   2.931   2.935
  2.941   2.943   2.944   2.948   2.951   2.953   2.954   2.956
  2.957   2.963   2.963   2.967   2.970   2.971   2.974   2.978
  2.982   2.988   2.994   2.996   2.998   2.999   3.004   3.004
  3.007   3.010   3.013   3.015   3.016   3.017   3.021   3.022
  3.025   3.027   3.029   3.031   3.033   3.035   3.039   3.042
  3.044   3.047   3.050   3.052   3.052   3.058   3.064   3.067
  3.071   3.073   3.075   3.084   3.088   3.093   3.104   3.108
  3.111   3.116   3.119   3.131   3.136   3.139   3.143   3.143
  3.153   3.154   3.157   3.163   3.168   3.169   3.173   3.183
  3.185   3.194   3.201   3.207   3.220   3.235   3.239   3.242
  3.247   3.248   3.256   3.258   3.263   3.277   3.282   3.292
  3.298   3.302   3.306   3.310   3.316   3.322   3.323   3.331
  3.333   3.335   3.343   3.353   3.357   3.370   3.381   3.389
  3.404   3.407   3.414   3.423   3.436   3.440   3.440   3.442
  3.447   3.451   3.458   3.463   3.466   3.481   3.488   3.489
  3.497   3.509   3.512   3.524   3.529   3.535   3.538   3.546
  3.557   3.563   3.566   3.571   3.578   3.590   3.593   3.603
  3.613   3.624   3.675   3.682   3.851   3.915   3.983   3.996
  4.066   4.071   4.083   4.084   4.086   4.092   4.095   4.096
  4.097   4.097   4.104   4.107   4.110   4.112   4.114   4.121
  4.127   4.129   4.134   4.135   4.140   4.144   4.146   4.147
  4.148   4.152   4.158   4.164   4.165   4.170   4.171   4.174
  4.179   4.183   4.187   4.194   4.196   4.210   4.218   4.238
  4.242   4.242   4.245   4.248   4.251   4.253   4.255   4.257
  4.263   4.264   4.272   4.280   4.285   4.288   4.294   4.297
  4.304   4.306   4.314   4.332   4.374   4.382   4.390   4.396
  4.397   4.401   4.402   4.405   4.409   4.411   4.412   4.415
  4.416   4.420   4.421   4.427   4.438   4.442   4.470   4.473
  4.474   4.498   4.502   4.532   4.534   4.537   4.541   4.548
  4.553   4.566   4.617   4.621   4.630   4.631   4.634   4.636
  4.638   4.641   4.674   4.687   4.692   4.693   4.695   4.697
  4.699   4.700   4.703   4.716   4.746   4.772   4.798   4.815
  4.824   4.858   4.859   4.865   4.867   4.878   4.884   4.893
  4.898   4.906   4.956   4.961   4.962   4.968   4.971   4.972
  4.989   4.994   5.000   5.008   5.163   5.173   5.176   5.180
  5.188   5.196   5.212   5.232   5.301   5.321   5.330   5.337
  5.366   5.373
 --------------------------------------------------------------
 
          Ground-State Mulliken Net Atomic Charges

     Atom                 Charge (a.u.)
  ----------------------------------------
      1 O                    -0.463195
      2 C                    -0.089768
      3 H                     0.129553
      4 H                     0.134423
      5 H                     0.127401
      6 O                    -0.477263
      7 C                     0.582042
      8 C                    -0.250039
      9 H                     0.116695
     10 H                     0.134447
     11 C                    -0.196612
     12 H                     0.107691
     13 H                     0.127581
     14 C                    -0.159754
     15 H                     0.130915
     16 H                     0.110482
     17 C                     0.006469
     18 C                     0.090655
     19 C                    -0.111655
     20 H                     0.095135
     21 C                    -0.084111
     22 H                     0.095886
     23 C                    -0.082884
     24 H                     0.082894
     25 C                    -0.083155
     26 H                     0.098462
     27 C                    -0.117941
     28 H                     0.092127
     29 C                    -0.034193
     30 C                     0.002366
     31 C                     0.034846
     32 C                    -0.000051
     33 C                    -0.021372
     34 C                     0.012941
     35 C                     0.012839
     36 C                    -0.012933
     37 C                     0.021944
     38 C                    -0.036199
     39 C                    -0.082459
     40 C                    -0.004060
     41 C                     0.007591
     42 C                    -0.015644
     43 C                     0.002828
     44 C                     0.009833
     45 C                    -0.093274
     46 C                     0.032035
     47 C                    -0.000881
     48 C                     0.029791
     49 C                    -0.011959
     50 C                    -0.001076
     51 C                     0.008659
     52 C                     0.015036
     53 C                     0.036059
     54 C                    -0.003809
     55 C                     0.013669
     56 C                    -0.015177
     57 C                    -0.015018
     58 C                    -0.010740
     59 C                     0.002089
     60 C                     0.008292
     61 C                    -0.014558
     62 C                    -0.005317
     63 C                    -0.020198
     64 C                    -0.029441
     65 C                    -0.006552
     66 C                     0.004256
     67 C                     0.026162
     68 C                    -0.018388
     69 C                    -0.003507
     70 C                    -0.014091
     71 C                    -0.011611
     72 C                     0.022637
     73 C                     0.033536
     74 C                    -0.008306
     75 C                    -0.029592
     76 C                     0.014775
     77 C                    -0.019332
     78 C                     0.017502
     79 C                    -0.010132
     80 C                     0.017565
     81 C                     0.009525
     82 C                     0.017547
     83 C                     0.000086
     84 C                     0.003273
     85 C                    -0.021647
     86 C                     0.008229
     87 C                     0.015313
     88 C                    -0.011600
     89 O                    -0.453005
     90 C                    -0.098159
     91 H                     0.130954
     92 H                     0.128804
     93 H                     0.126148
     94 O                    -0.452991
     95 C                     0.595249
     96 C                    -0.262992
     97 H                     0.127729
     98 H                     0.119488
     99 C                    -0.173626
    100 H                     0.124331
    101 H                     0.110086
    102 C                    -0.190442
    103 H                     0.104762
    104 H                     0.108488
    105 C                     0.005229
    106 C                     0.107832
    107 C                    -0.100239
    108 H                     0.093447
    109 C                    -0.110022
    110 H                     0.092196
    111 C                    -0.084440
    112 H                     0.090945
    113 C                    -0.082868
    114 H                     0.093360
    115 C                    -0.105283
    116 H                     0.089495
    117 C                    -0.027243
    118 C                    -0.031528
    119 C                     0.006418
    120 C                    -0.021037
    121 C                     0.004356
    122 C                     0.024772
    123 C                     0.008589
    124 C                    -0.044571
    125 C                    -0.011174
    126 C                     0.014002
    127 C                    -0.086018
    128 C                    -0.006191
    129 C                    -0.010300
    130 C                    -0.015736
    131 C                     0.014532
    132 C                     0.007807
    133 C                    -0.102702
    134 C                     0.036801
    135 C                    -0.034295
    136 C                    -0.005702
    137 C                    -0.002549
    138 C                    -0.017381
    139 C                     0.026008
    140 C                    -0.011580
    141 C                     0.026138
    142 C                    -0.004247
    143 C                    -0.007951
    144 C                    -0.017841
    145 C                     0.012957
    146 C                    -0.015270
    147 C                     0.013119
    148 C                     0.008419
    149 C                     0.002331
    150 C                    -0.012749
    151 C                     0.007455
    152 C                    -0.015546
    153 C                    -0.001637
    154 C                    -0.015564
    155 C                     0.039429
    156 C                    -0.001324
    157 C                     0.012876
    158 C                     0.008120
    159 C                    -0.005304
    160 C                     0.020881
    161 C                     0.028037
    162 C                     0.003056
    163 C                     0.010258
    164 C                    -0.010172
    165 C                     0.005659
    166 C                     0.005813
    167 C                     0.003126
    168 C                     0.035997
    169 C                    -0.022222
    170 C                    -0.019165
    171 C                     0.013524
    172 C                    -0.028171
    173 C                    -0.006018
    174 C                     0.022416
    175 C                     0.022486
    176 C                     0.026738
  ----------------------------------------
  Sum of atomic charges =     0.000000

 -----------------------------------------------------------------
                    Cartesian Multipole Moments
 -----------------------------------------------------------------
    Charge (ESU x 10^10)
                 0.0000
    Dipole Moment (Debye)
         X       3.7462      Y      -1.2516      Z       0.6929
       Tot       4.0101
    Quadrupole Moments (Debye-Ang)
        XX    -751.3218     XY     -48.8788     YY    -791.3284
        XZ     -16.3391     YZ      16.7858     ZZ    -814.5246
    Octopole Moments (Debye-Ang^2)
       XXX     759.1649    XXY    -171.3393    XYY      72.2359
       YYY     106.0673    XXZ      13.8752    XYZ     -18.2914
       YYZ      23.0768    XZZ     155.8901    YZZ     -89.1671
       ZZZ    -103.7254
    Hexadecapole Moments (Debye-Ang^3)
      XXXX -148979.6735   XXXY   -8290.6915   XXYY  -32192.2986
      XYYY   -3481.9670   YYYY  -44326.2851   XXXZ   -3065.8469
      XXYZ    1856.0704   XYYZ    -990.6978   YYYZ     485.5330
      XXZZ  -30708.0449   XYZZ    -827.8463   YYZZ  -11412.4279
      XZZZ   -1053.1709   YZZZ     431.3632   ZZZZ  -22876.0747
 -----------------------------------------------------------------
Archival summary:
1\1\mn366\SP\ProcedureUnspecified\6-31G**\428\afmv_a\SunOct712:30:322018SunOct712:30:322018\0\\#,ProcedureUnspecified,6-31G**,\\0,1\C\C,1,1.3741\C,2,1.39154,1,110.425\C,3,1.40409,2,122.42,1,-141.062,0\C,4,1.396,3,117.908,2,138.04,0\C,5,1.38991,4,104.839,3,-147.313,0\C,1,1.40553,2,107.059,3,-4.38441,0\C,7,1.41006,1,108.295,2,5.95857,0\C,8,1.39044,7,120.187,1,140.317,0\C,9,1.40068,8,119.689,7,-143.165,0\C,10,1.37202,9,103.797,8,140.775,0\C,11,1.40501,10,116.584,9,-141.129,0\C,12,1.41545,11,119.382,10,145.032,0\C,13,1.3629,12,104.884,11,-145.28,0\C,14,1.38188,13,120.458,12,145.328,0\C,13,1.38966,12,120.01,11,-4.77288,0\C,15,1.39819,14,121.253,13,-142.012,0\C,16,1.39883,13,121.74,12,2.68925,0\C,18,1.36789,16,110.504,13,-142.639,0\C,19,1.35098,18,104.393,16,0.655945,0\C,20,1.40508,19,120.69,18,152.875,0\C,21,1.40862,20,116.421,19,-17.9592,0\C,22,1.39386,21,109.192,20,-133.133,0\C,23,1.36016,22,120.49,21,147.132,0\C,24,1.36612,23,124.158,22,-140.455,0\C,23,1.38461,22,110.036,21,0.7332,0\C,26,1.36581,23,117.894,22,139.464,0\C,25,1.38562,24,109.861,23,141.196,0\C,16,1.41029,13,119.292,12,-138.806,0\C,29,1.3637,16,119.111,13,-0.153395,0\C,25,1.41678,24,119.122,23,2.39645,0\C,31,1.39173,25,123.512,24,134.816,0\C,32,1.38372,31,108.052,25,-140.521,0\C,33,1.39079,32,115.767,31,144.724,0\C,33,1.40352,32,110.824,31,-0.150106,0\C,32,1.40902,31,117.359,25,2.5416,0\C,36,1.38832,32,121.939,31,-2.18342,0\C,36,1.40308,32,120.396,31,-139.338,0\C,38,1.39761,36,109.67,32,143.057,0\C,38,1.39946,36,119.01,32,-0.379063,0\C,39,1.40585,38,108.593,36,0.0824287,0\C,35,1.41065,33,120.952,32,149.772,0\C,22,1.41775,21,122.072,20,15.0126,0\C,43,1.38377,22,120.666,21,-145.743,0\C,43,1.38921,22,119.18,21,-3.57688,0\C,44,1.4172,43,117.703,22,3.54937,0\C,46,1.39436,44,120.353,43,138.585,0\C,6,1.41895,5,107.882,4,3.65537,0\C,48,1.37072,6,111.511,5,-3.27786,0\C,7,1.42101,1,115.729,2,146.19,0\C,50,1.40825,7,117.24,1,-136.881,0\C,51,1.38534,50,121.503,7,-1.20767,0\C,52,1.38416,51,118.469,50,136.197,0\C,34,1.42217,33,118.187,32,-142.067,0\C,54,1.40137,34,107.652,33,141.304,0\C,55,1.35935,54,120.631,34,-143.159,0\C,56,1.39282,55,122.247,54,142.171,0\C,55,1.39559,54,110.713,34,6.89849,0\C,30,1.48696,29,118.371,16,148.637,0\C,59,1.50032,30,118.062,29,-10.1969,0\C,59,1.5236,30,129.675,29,63.8342,0\C,61,1.50395,59,120.145,30,2.6253,0\C,62,1.41186,61,121.072,59,-118.909,0\H,63,1.08569,62,121.817,61,0.849419,0\C,62,1.41344,61,118.65,59,67.8926,0\H,65,1.08559,62,115.918,61,-2.90516,0\C,65,1.41325,62,118.851,61,-173.728,0\H,67,1.08666,65,117.598,62,170.588,0\C,67,1.38372,65,117.127,62,-18.02,0\H,69,1.08585,67,118.782,65,-166.38,0\C,69,1.36997,67,125.362,65,17.0352,0\H,71,1.08619,69,121.218,67,171.686,0\C,61,1.51174,59,118.861,30,148.173,0\H,73,1.09728,61,111.121,59,45.1838,0\H,73,1.09749,61,108.963,59,-79.8899,0\C,73,1.52955,61,114.081,59,160.267,0\H,76,1.09748,73,112.131,61,65.7876,0\H,76,1.09772,73,110.036,61,-56.2666,0\C,76,1.54774,73,111.016,61,-166.192,0\H,79,1.09667,76,113.775,73,173.894,0\H,79,1.09741,76,116.618,73,55.996,0\C,79,1.54533,76,110.974,73,-68.7202,0\O,82,1.25711,79,119.352,76,76.5096,0\O,82,1.38379,79,113.897,76,-95.5566,0\C,84,1.45889,82,119.693,79,179.846,0\H,85,1.09676,84,115.077,82,-70.8263,0\H,85,1.09696,84,111.353,82,48.3016,0\H,85,1.09745,84,109.695,82,169.358,0\H,41,2.93286,39,84.0024,38,139.986,0\C,89,1.08578,41,126.528,39,161.775,0\C,90,1.35558,89,117.837,41,-127.568,0\H,91,1.08543,90,115.716,89,1.25904,0\C,90,1.37434,89,121.564,41,50.7872,0\H,93,1.08582,90,122.777,89,-7.42054,0\C,93,1.38087,90,120.889,89,179.632,0\C,95,1.36683,93,120.632,90,-6.05009,0\H,96,1.08533,95,120.43,93,-175.977,0\C,96,1.40795,95,119.175,93,10.4708,0\H,98,1.08622,96,115.752,95,173.934,0\C,95,1.4856,93,119.699,90,179.258,0\C,100,1.45446,95,122.117,93,-56.8797,0\C,101,1.48977,100,121.56,95,0.689698,0\C,102,1.39418,101,121.619,100,-80.7313,0\C,103,1.4085,102,123.665,101,-145.594,0\C,104,1.4005,103,122.739,102,6.55521,0\C,105,1.41478,104,119.024,103,137.121,0\C,106,1.37339,105,104.537,104,-135.145,0\C,107,1.40128,106,110.035,105,-0.582598,0\C,108,1.39023,107,110.183,106,0.441825,0\C,108,1.39868,107,120.983,106,145.881,0\C,110,1.37579,108,122.965,107,-140.724,0\C,111,1.35339,110,108.426,108,146.06,0\C,111,1.37598,110,118.236,108,0.536863,0\C,112,1.38071,111,111.082,110,0.343067,0\C,110,1.38524,108,119.7,107,-2.63043,0\C,115,1.40241,110,120.02,108,3.97607,0\C,116,1.38299,115,116.662,110,-141.853,0\C,116,1.39511,115,121.191,110,-7.77179,0\C,118,1.35397,116,111.749,115,-141.88,0\C,113,1.40544,111,122.51,110,139.836,0\C,120,1.40222,113,113.892,111,-8.47736,0\C,121,1.40303,120,122.372,113,-142.43,0\C,122,1.37438,121,107.05,120,153.849,0\C,121,1.40667,120,123.686,113,13.1839,0\C,124,1.35919,121,106.114,120,-153.712,0\C,125,1.39299,124,118.286,121,140.888,0\C,126,1.37827,125,120.208,124,2.11639,0\C,119,1.40733,118,105.651,116,6.50758,0\C,109,1.41468,108,121.574,107,145.295,0\C,127,1.41721,126,105.144,125,-139.038,0\C,123,1.41821,122,118.265,121,-137.974,0\C,131,1.38511,123,120.82,122,1.47914,0\C,132,1.38062,131,108.576,123,142.057,0\C,133,1.36523,132,110.269,131,1.24662,0\C,133,1.40379,132,117.632,131,-146.91,0\C,135,1.38836,133,121.937,132,2.8678,0\C,131,1.41699,123,120.251,122,139.894,0\C,136,1.41857,135,120.354,133,-6.18018,0\C,136,1.41991,135,106.648,133,139.547,0\C,139,1.37612,136,119.264,135,-141.914,0\C,139,1.39763,136,108.682,135,0.816521,0\C,141,1.37667,139,108.948,136,0.358035,0\C,142,1.3768,141,119.637,139,-144.506,0\C,141,1.38504,139,119.873,136,-144.072,0\C,144,1.38808,141,120.001,139,138.295,0\C,145,1.38055,144,105.665,141,-144.785,0\C,144,1.39661,141,120.044,139,0.279272,0\C,147,1.38503,144,111.505,141,142.382,0\C,143,1.40135,142,122.776,141,4.32269,0\C,149,1.36856,143,114.453,142,137.379,0\C,150,1.39756,149,103.77,143,-1.16653,0\C,151,1.41216,150,120.234,149,-143.585,0\C,152,1.40049,151,123.676,150,144.343,0\C,132,1.42064,131,119.292,123,-6.162,0\C,143,1.42211,142,119.493,141,138.522,0\C,140,1.42335,139,122.546,136,142.463,0\C,103,1.42441,102,120.64,101,7.50882,0\C,157,1.42116,103,122.422,102,-5.83727,0\C,122,1.42443,121,120.705,120,3.90182,0\C,158,1.49142,157,119.723,103,2.45317,0\C,100,1.55504,95,112.036,93,88.6618,0\H,161,1.09641,100,116.185,95,-174.685,0\H,161,1.09658,100,104.072,95,-61.0683,0\C,161,1.44482,100,115.999,95,58.769,0\H,164,1.09648,161,106.119,100,-63.0323,0\H,164,1.09777,161,103.844,100,-172.681,0\C,164,1.52632,161,116.832,100,65.7045,0\H,167,1.09715,164,117.095,161,-69.9901,0\H,167,1.09743,164,105.781,161,39.2779,0\C,167,1.58277,164,114.442,161,159.03,0\O,170,1.20464,167,120.377,164,-35.0988,0\O,170,1.3596,167,110.57,164,137.736,0\C,172,1.42578,170,118.545,167,-176.331,0\H,173,1.09645,172,111.362,170,41.2461,0\H,173,1.09646,172,115.932,170,161.986,0\H,173,1.09719,172,108.478,170,-68.544,0\\\@

 Total job time:  850.83s(wall), 7239.98s(cpu) 
 Sun Oct  7 12:30:32 2018

        *************************************************************
        *                                                           *
        *  Thank you very much for using Q-Chem.  Have a nice day.  *
        *                                                           *
        *************************************************************


