
Running Job 1 of 1 ./9/10.qcin
qchem ./9/10.qcin_29981.0 /tmpu/cab_g/afmv_a/scratch_qchem/qchem29981/ 1
/tmpu/appuserlic/qchem4.4/serial-multicore/exe/qcprog.exe_s ./9/10.qcin_29981.0 /tmpu/cab_g/afmv_a/scratch_qchem/qchem29981/
Check license passed

                  Welcome to Q-Chem
     A Quantum Leap Into The Future Of Chemistry


 Q-Chem 4.4, Q-Chem, Inc., Pleasanton, CA (2016)

 Y. Shao,  Z. Gan,  E. Epifanovsky,  A. T. B. Gilbert,  M. Wormit,  
 J. Kussmann,  A. W. Lange,  A. Behn,  J. Deng,  X. Feng,  D. Ghosh,  
 M. Goldey,  P. R. Horn,  L. D. Jacobson,  I. Kaliman,  F. Rob,  
 R. Z. Khaliullin,  T. Kus,  A. Landau,  J. Liu,  E. I. Proynov,  Y. M. Rhee,  
 R. M. Richard,  M. A. Rohrdanz,  R. P. Steele,  E. J. Sundstrom,  
 H. L. Woodcock III,  P. M. Zimmerman,  D. Zuev,  B. Albrecht,  E. Alguire,  
 B. Austin,  S. A. Baeppler,  G. J. O. Beran,  Y. A. Bernard,  E. Berquist,  
 K. Brandhorst,  K. B. Bravaya,  S. T. Brown,  D. Casanova,  C.-M. Chang,  
 Y. Chen,  S. H. Chien,  K. D. Closser,  M. P. Coons,  D. L. Crittenden,  
 S. Dasgupta,  M. Diedenhofen,  R. A. DiStasio Jr.,  H. Do,  A. D. Dutoi,  
 R. G. Edgar,  P.-T. Fang,  S. Fatehi,  Q. Feng,  L. Fusti-Molnar,  
 A. Ghysels,  A. Golubeva-Zadorozhnaya,  J. Gomes,  A. Gunina,  
 M. W. D. Hanson-Heine,  P. H. P. Harbach,  A. W. Hauser,  J. E. Herr,  
 E. G. Hohenstein,  Z. C. Holden,  K. Hui,  T.-C. Jagau,  H. Ji,  B. Kaduk,  
 K. Khistyaev,  Jaehoon Kim,  Jihan Kim,  R. A. King,  P. Klunzinger,  
 K. Koh,  D. Kosenkov,  T. Kowalczyk,  C. M. Krauter,  A. Kunitsa,  
 K. U. Lao,  A. Laurent,  K. V. Lawler,  J. Lee,  D. Lefrancois,  S. Lehtola,  
 S. V. Levchenko,  C. Y. Lin,  Y.-S. Lin,  F. Liu,  E. Livshits,  
 R. C. Lochan,  A. Luenser,  P. Manohar,  S. F. Manzer,  S.-P. Mao,  Y. Mao,  
 N. Mardirossian,  A. V. Marenich,  L. A. Martinez-Martinez,  S. A. Maurer,  
 N. J. Mayhall,  J.-M. Mewes,  A. F. Morrison,  K. Nanda,  T. S. Nguyen-Beck,  
 C. M. Oana,  R. Olivares-Amaya,  D. P. O'Neill,  J. A. Parkhill,  
 T. M. Perrine,  R. Peverati,  P. A. Pieniazek,  F. Plasser,  A. Prociuk,  
 D. R. Rehn,  E. Rosta,  N. J. Russ,  N. Sergueev,  S. M. Sharada,  
 S. Sharma,  D. W. Small,  A. Sodt,  T. Stauch,  T. Stein,  D. Stuck,  
 Y.-C. Su,  A. J. W. Thom,  T. Tsuchimochi,  L. Vogt,  O. Vydrov,  T. Wang,  
 M. A. Watson,  J. Wenzel,  A. White,  C. F. Williams,  V. Vanovschi,  
 K. Yao,  S. Yeganeh,  S. R. Yost,  Z.-Q. You,  I. Y. Zhang,  X. Zhang,  
 Y. Zhao,  B. R. Brooks,  G. K. L. Chan,  D. M. Chipman,  C. J. Cramer,  
 W. A. Goddard III,  M. S. Gordon,  W. J. Hehre,  A. Klamt,  
 H. F. Schaefer III,  M. W. Schmidt,  C. D. Sherrill,  D. G. Truhlar,  
 A. Warshel,  X. Xu,  A. Aspuru-Guzik,  R. Baer,  A. T. Bell,  N. A. Besley,  
 J.-D. Chai,  A. Dreuw,  B. D. Dunietz,  T. R. Furlani,  S. R. Gwaltney,  
 C.-P. Hsu,  Y. Jung,  J. Kong,  D. S. Lambrecht,  W. Liang,  C. Ochsenfeld,  
 V. A. Rassolov,  L. V. Slipchenko,  J. E. Subotnik,  T. Van Voorhis,  
 J. M. Herbert,  A. I. Krylov,  P. M. W. Gill,  M. Head-Gordon

 Contributors to earlier versions of Q-Chem not listed above: 
 R. D. Adamson,  J. Baker,  E. F. C. Byrd,  A. K. Chakraborty,  C.-L. Cheng,  
 H. Dachsel,  R. J. Doerksen,  G. Hawkins,  A. Heyden,  S. Hirata,  
 G. Kedziora,  F. J. Keil,  C. Kelley,  P. P. Korambath,  W. Kurlancheek,  
 A. M. Lee,  M. S. Lee,  D. Liotard,  I. Lotan,  P. E. Maslen,  N. Nair,  
 D. Neuhauser,  R. Olson,  B. Peters,  J. Ritchie,  N. E. Schultz,  
 N. Shenvi,  A. C. Simmonett,  K. S. Thanthiriwatte,  Q. Wu,  W. Zhang

 Please cite Q-Chem as follows:
 Y. Shao et al., Mol. Phys. 113, 184-215 (2015)
 DOI: 10.1080/00268976.2014.952696

 Q-Chem 4.4.2 for Intel X86 Linux

 Parts of Q-Chem use Armadillo 5.200.1 (Boston Tea Smuggler).
 http://arma.sourceforge.net/

 Q-Chem begins on Fri Oct 12 11:11:33 2018  

Host: 
0

     Scratch files written to /tmpu/cab_g/afmv_a/scratch_qchem/qchem29981//
 Dec716 11556_ 22328  22283 4050   
Processing $rem in /tmpu/appuserlic/qchem4.4/serial-multicore/config/preferences.
 MEM_TOTAL  2000 
FILE_GEOM_ORG=        593

Checking the input file for inconsistencies... 	...done.

--------------------------------------------------------------
User input:
--------------------------------------------------------------
$comment
SP
$end

$rem
MEM_STATIC 5000
MEM_TOTAL 20000
JOBTYPE SP
EXCHANGE B3LYP
BASIS 6-31g(d,p)
$end

$molecule
0 1
O         -18.601000     -5.245000     11.675000
C         -19.736000     -4.450000     11.987000
H         -19.880000     -3.847000     11.083000
H         -19.639000     -3.822000     12.881000
H         -20.651000     -5.032000     12.158000
O         -19.037000     -7.057000     13.093000
C         -18.262000     -6.356000     12.449000
C         -16.802000     -6.776000     12.244000
H         -16.422000     -7.456000     13.016000
H         -16.244000     -5.842000     12.380000
C         -16.494000     -7.347000     10.905000
H         -16.891000     -6.679000     10.130000
H         -15.401000     -7.327000     10.823000
C         -17.131000     -8.741000     10.729000
H         -16.721000     -9.518000     11.385000
H         -18.173000     -8.541000     11.010000
C         -17.088000     -9.115000      9.217000
C         -18.128000     -8.405000      8.414000
C         -17.836000     -7.309000      7.501000
H         -16.826000     -6.910000      7.497000
C         -18.833000     -6.527000      6.839000
H         -18.577000     -5.531000      6.490000
C         -20.164000     -6.903000      7.048000
H         -21.001000     -6.354000      6.627000
C         -20.402000     -8.037000      7.804000
H         -21.445000     -8.301000      7.950000
C         -19.476000     -8.734000      8.576000
H         -19.713000     -9.553000      9.249000
C         -16.644000    -13.379000      5.577000
C         -15.397000    -11.549000      4.477000
C         -11.247000    -13.377000      5.086000
C         -14.840000    -14.106000     10.303000
C         -10.664000    -11.358000      7.856000
C         -16.513000    -12.019000      5.260000
C         -12.191000    -13.432000     10.234000
C         -13.386000    -14.530000      4.526000
C         -13.834000     -9.092000      7.163000
C         -14.451000    -12.814000     10.750000
C         -15.733000     -9.522000      8.589000
C         -13.340000     -9.298000      8.467000
C         -12.974000    -11.179000     10.367000
C         -11.095000    -13.073000      9.488000
C         -15.772000     -9.992000      6.069000
C         -10.513000    -13.661000      7.208000
C         -16.774000    -10.600000      8.864000
C         -16.402000    -11.721000      9.764000
C         -10.422000    -12.355000      6.867000
C         -13.803000    -15.968000      7.656000
C         -12.011000    -15.366000      6.392000
C         -13.164000    -15.478000      5.564000
C         -14.657000    -13.914000      4.268000
C         -16.791000    -12.947000      9.206000
C         -15.195000     -9.328000      7.145000
C         -14.498000    -12.519000      3.928000
C         -13.119000    -12.524000     10.672000
C         -14.971000    -10.326000      4.938000
C         -12.067000     -9.815000      8.614000
C         -15.883000    -15.179000      8.577000
C         -12.421000    -13.448000      4.298000
C         -14.424000     -9.647000      9.288000
C         -15.535000    -15.294000      6.141000
C         -11.894000    -10.763000      9.604000
C         -13.034000     -9.405000      6.046000
C         -11.821000    -15.085000      8.744000
C         -12.624000    -14.691000      9.825000
C         -11.769000     -9.989000      6.176000
C         -16.061000    -14.150000      9.541000
C         -15.151000    -11.685000     10.406000
C         -14.593000    -15.766000      8.754000
C         -17.164000    -11.395000      7.585000
C         -12.662000    -11.038000      4.516000
C         -14.216000    -10.665000     10.184000
C         -11.284000    -10.201000      7.514000
C         -16.294000    -14.934000      7.257000
C         -10.860000    -12.110000      5.587000
C         -15.760000    -14.362000      5.043000
C         -11.124000    -14.306000      6.153000
C         -13.594000    -10.084000      4.962000
C         -11.482000    -10.930000      5.226000
C         -16.672000    -11.032000      6.264000
C         -17.173000    -12.762000      7.908000
C         -12.444000    -15.751000      7.711000
C         -13.088000    -12.292000      4.028000
C         -11.016000    -11.716000      9.099000
C         -13.949000    -15.077000      9.794000
C         -10.841000    -14.078000      8.561000
C         -16.945000    -13.732000      6.930000
C         -14.279000    -15.862000      6.348000
O         -15.981000    -17.321000      2.552000
C         -14.713000    -16.889000      2.039000
H         -14.391000    -15.979000      2.559000
H         -14.873000    -16.724000      0.966000
H         -13.982000    -17.686000      2.225000
O         -16.984000    -15.327000      1.992000
C         -17.037000    -16.435000      2.397000
C         -18.374000    -17.182000      2.738000
H         -18.177000    -18.211000      2.413000
H         -19.207000    -16.600000      2.326000
C         -18.588000    -17.195000      4.250000
H         -17.660000    -17.580000      4.691000
H         -18.685000    -16.175000      4.642000
C         -19.877000    -18.007000      4.677000
H         -20.783000    -17.609000      4.202000
H         -19.870000    -19.006000      4.226000
C         -20.008000    -17.984000      6.209000
C         -19.022000    -18.973000      6.901000
C         -17.767000    -18.519000      7.304000
H         -17.531000    -17.471000      7.150000
C         -16.876000    -19.331000      8.062000
H         -15.904000    -18.903000      8.286000
C         -17.302000    -20.577000      8.449000
H         -16.627000    -21.218000      9.010000
C         -18.590000    -21.088000      8.149000
H         -18.967000    -22.057000      8.462000
C         -19.428000    -20.300000      7.300000
H         -20.449000    -20.613000      7.105000
C         -23.148000    -18.359000     10.533000
C         -21.271000    -17.100000     11.434000
C         -23.381000    -13.065000     11.896000
C         -25.161000    -16.094000      6.415000
C         -22.207000    -11.867000      8.789000
C         -21.835000    -18.101000     10.596000
C         -24.778000    -13.321000      6.729000
C         -24.160000    -15.372000     12.329000
C         -19.657000    -14.883000      8.491000
C         -24.109000    -15.468000      5.715000
C         -20.285000    -16.698000      6.947000
C         -20.166000    -14.318000      7.320000
C         -22.531000    -13.796000      5.989000
C         -24.246000    -12.275000      7.527000
C         -20.119000    -17.105000      9.459000
C         -24.243000    -12.131000      9.973000
C         -21.356000    -17.756000      6.830000
C         -22.660000    -17.335000      6.303000
C         -22.867000    -11.792000     10.006000
C         -26.379000    -15.555000      9.667000
C         -25.500000    -13.948000     11.022000
C         -25.374000    -15.193000     11.684000
C         -23.488000    -16.607000     12.196000
C         -23.734000    -17.985000      6.972000
C         -19.805000    -16.299000      8.346000
C         -22.133000    -16.353000     12.234000
C         -23.933000    -14.091000      5.948000
C         -20.270000    -16.444000     10.683000
C         -20.857000    -13.072000      7.500000
C         -25.660000    -17.413000      8.190000
C         -23.223000    -14.367000     12.456000
C         -20.564000    -15.296000      6.402000
C         -25.287000    -17.458000     10.695000
C         -22.028000    -12.783000      6.767000
C         -19.700000    -14.245000      9.758000
C         -25.906000    -13.311000      8.681000
C         -25.794000    -13.928000      7.405000
C         -20.336000    -13.016000      9.859000
C         -25.016000    -17.377000      6.982000
C         -22.838000    -16.041000      5.767000
C         -26.271000    -16.135000      8.369000
C         -21.763000    -18.341000      8.158000
C         -20.876000    -14.344000     11.721000
C         -21.857000    -14.995000      5.794000
C         -20.933000    -12.458000      8.719000
C         -25.115000    -18.024000      9.393000
C         -22.339000    -12.457000     11.172000
C         -24.037000    -17.606000     11.357000
C         -24.544000    -12.913000     11.119000
C         -20.100000    -15.051000     10.813000
C         -21.089000    -13.092000     11.097000
C         -21.089000    -18.138000      9.384000
C         -23.189000    -18.527000      8.125000
C         -26.149000    -14.179000      9.788000
C         -21.940000    -15.014000     12.433000
C         -22.845000    -12.023000      7.546000
C         -25.979000    -15.344000      7.234000
C         -24.935000    -12.340000      8.774000
C         -23.855000    -18.592000      9.372000
C         -25.896000    -16.176000     10.836000
$end

--------------------------------------------------------------
 ----------------------------------------------------------------
             Standard Nuclear Orientation (Angstroms)
    I     Atom           X                Y                Z
 ----------------------------------------------------------------
    1      O       2.3595906689    -8.7971868875     0.0480530876
    2      C       1.5709912195    -9.9228711029     0.4065777811
    3      H       1.7977721394   -10.0636259025     1.4697426323
    4      H       1.7623915704   -10.8347588631    -0.1720893240
    5      H       0.4904109621    -9.7563443414     0.3075568492
    6      O       1.0742240073    -8.0221728739    -1.7495424798
    7      C       2.1408599169    -8.1132744557    -1.1489175234
    8      C       3.3513577441    -7.2655990808    -1.5565527389
    9      H       3.3314387725    -6.9352442648    -2.6021401002
   10      H       4.1911334885    -7.9674350633    -1.4900775342
   11      C       3.6178449410    -6.0896877706    -0.6847481941
   12      H       3.6181561719    -6.4131394416     0.3639829057
   13      H       4.6384089150    -5.7712341772    -0.9272548616
   14      C       2.5398257818    -5.0010056341    -0.8653773667
   15      H       2.5282787123    -4.5275481171    -1.8542502831
   16      H       1.6187558047    -5.5824657920    -0.7302508259
   17      C       2.6627349821    -3.9860463545     0.3104712584
   18      C       2.0939946283    -4.5078677503     1.5890430557
   19      C       2.9055243526    -4.9438297592     2.7166092992
   20      H       3.9801079324    -5.0049437387     2.5722063512
   21      C       2.3822393067    -5.5789680594     3.8856042095
   22      H       3.0401915555    -6.1957784272     4.4905809103
   23      C       0.9920049346    -5.7179506690     3.9530595626
   24      H       0.4926533643    -6.2210929769     4.7756814850
   25      C       0.2389144307    -5.1637920138     2.9333052403
   26      H      -0.8364346809    -5.2906328441     3.0132845633
   27      C       0.7126830733    -4.6700406053     1.7204483568
   28      H       0.0904060735    -4.3451949759     0.8915299938
   29      C       2.0142129937     1.4039082723     1.7788854887
   30      C       4.0020859921     0.6906381977     3.0647765195
   31      C       7.0301142408     3.0975102959     0.6208091245
   32      C       2.6971567039     0.3689012747    -3.1789738683
   33      C       7.9091624009     0.2870648910    -1.2279258370
   34      C       2.6889090996     0.4296648062     2.5291420004
   35      C       5.3850676136     0.5511660029    -3.6460418614
   36      C       4.7232318443     3.7461228071     1.3106826048
   37      C       5.9546187314    -2.1859006406     1.1654202566
   38      C       3.4699520978    -0.8238537196    -3.2017071636
   39      C       3.8443724350    -2.9861508966     0.3104131830
   40      C       6.1375940009    -2.4679200539    -0.2034745900
   41      C       5.4897884460    -1.6342088160    -2.6868977386
   42      C       6.6330102284     0.8840672148    -3.1786779632
   43      C       4.0051368221    -1.4548319822     2.3603005443
   44      C       7.2829975694     2.5760543126    -1.5669819257
   45      C       2.4478021983    -2.4803870359    -0.0289752249
   46      C       2.2369579471    -1.8361479500    -1.3501586724
   47      C       7.9044362656     1.6475973159    -0.8041060825
   48      C       3.3422117201     3.4323621548    -1.8568038860
   49      C       5.3947880420     3.9840037329    -1.0481098698
   50      C       4.4192539128     4.1400602636    -0.0226750732
   51      C       3.8273752068     2.9937772521     2.1430755714
   52      C       1.5051983108    -0.6490298296    -1.2051090157
   53      C       4.6227072602    -2.3488611309     1.4937443515
   54      C       4.5441812401     2.0079143613     2.9184267635
   55      C       4.8096445196    -0.6710669827    -3.4168546198
   56      C       4.7809300908    -0.4398345128     2.9929481093
   57      C       7.0886427273    -1.7486622090    -0.9017592543
   58      C       1.5960196991     1.7776498386    -1.7572921949
   59      C       6.0447554335     3.1949071129     1.6326603393
   60      C       4.8933040898    -2.8400553544    -0.7365373774
   61      C       2.2313890496     3.0752781476     0.2379249763
   62      C       6.7468757043    -1.3463185793    -2.1784925489
   63      C       6.7352724207    -1.1953432212     1.7939374133
   64      C       5.3265262914     2.7304431486    -3.0657548323
   65      C       4.5786911696     1.6866801722    -3.6313584742
   66      C       7.6564813602    -0.4137145013     1.0878130375
   67      C       1.6750000376     0.4187729173    -2.1659933311
   68      C       3.3013163444    -1.8166080449    -2.2695173587
   69      C       2.5320652933     2.5473228697    -2.5132155183
   70      C       1.9825323075    -1.3321050311     0.9117364025
   71      C       6.6919372442     0.9856583966     2.4162934253
   72      C       4.5713241524    -2.3261315478    -1.9672344323
   73      C       7.8239541651    -0.7085236711    -0.3105622386
   74      C       1.5059848822     2.0564872458    -0.3841609440
   75      C       7.7837693619     1.9009214974     0.5418268123
   76      C       2.5355014129     2.7213157857     1.6188954021
   77      C       6.6382852279     3.4351606242    -0.7017343646
   78      C       6.1288497562    -0.2803207139     2.6568872168
   79      C       7.7081243026     0.8938940371     1.4851075337
   80      C       2.7636990097    -0.9065424601     2.0639295641
   81      C       1.4160659347    -0.3213576015     0.1176303125
   82      C       4.6597333960     3.5941107713    -2.2241851845
   83      C       5.9055012748     2.1546796785     2.5002202301
   84      C       7.2695923598    -0.0691556547    -2.3509459105
   85      C       3.2256469339     1.6666966739    -3.3584959517
   86      C       6.6271333600     2.2265339563    -2.8158853084
   87      C       1.4069783128     1.0074584702     0.5460381353
   88      C       3.1389641159     3.8059454076    -0.5272167454
   89      O       1.5957249884     6.3014375287     2.7630770210
   90      C       2.9940554319     6.5136339858     3.0023710545
   91      H       3.5520467086     5.5935621854     2.7919010633
   92      H       3.0675495589     6.8167723631     4.0544450716
   93      H       3.3384001886     7.3048626719     2.3244699889
   94      O       1.5045397277     4.5901527415     4.2989268266
   95      C       0.9824022952     5.3319645310     3.5428939102
   96      C      -0.5713729274     5.4462106701     3.3569117146
   97      H      -0.7272850533     6.5203833693     3.1984206382
   98      H      -1.0560651545     4.9120802849     4.1828264661
   99      C      -0.9954220885     4.7129175866     2.0862533960
  100      H      -0.3544335671     5.0926814655     1.2807702417
  101      H      -0.7611803005     3.6432697708     2.1530166715
  102      C      -2.5422096996     4.8563903303     1.7861573149
  103      H      -3.1531757914     4.4870245534     2.6199164873
  104      H      -2.8423222606     5.9104318961     1.8056464957
  105      C      -2.8797533325     4.1061286441     0.4869707624
  106      C      -2.4482804850     4.9002704457    -0.7828130699
  107      C      -1.1888636521     4.6747036119    -1.3364725722
  108      H      -0.5585938961     3.9198570063    -0.8774707893
  109      C      -0.7880315899     5.2628202886    -2.5698587375
  110      H       0.2289232090     5.0633008108    -2.8925643541
  111      C      -1.7006515705     6.0281026302    -3.2519354990
  112      H      -1.4046897839     6.5015824453    -4.1843787872
  113      C      -3.0267838794     6.2462962640    -2.8004605414
  114      H      -3.7801517831     6.8235177010    -3.3280126378
  115      C      -3.3746071263     5.7342845569    -1.5117200708
  116      H      -4.3977684418     5.8097147786    -1.1569156116
  117      C      -6.5338058259     1.6059104132    -2.5286568958
  118      C      -4.4776194673     0.6411860712    -3.4012482105
  119      C      -4.9712243640    -3.5673224143    -1.6716298904
  120      C      -6.9235059992     1.0032597166     2.5334833544
  121      C      -2.9899594339    -2.8538400758     1.1625298139
  122      C      -5.2442802835     1.7166952539    -2.8741313443
  123      C      -5.5834540223    -1.3872459559     3.1850639934
  124      C      -6.6101765120    -2.0190923546    -2.6881920079
  125      C      -1.7370334037     0.5358218185    -0.4585588959
  126      C      -5.6229321417     1.0767699865     3.0735610168
  127      C      -2.7620925230     2.6047333595     0.4024892081
  128      C      -1.8193023178     0.4488435455     0.9325606553
  129      C      -3.5937691453    -0.0354718421     2.9950775845
  130      C      -4.8233879866    -2.4915169360     2.7194147437
  131      C      -3.1329051164     1.8557241824    -2.0068327449
  132      C      -5.1279506297    -3.7225157598     0.6228593563
  133      C      -4.1207988178     3.2631786871     0.4239590710
  134      C      -5.0799940904     2.7892975924     1.4293282257
  135      C      -3.7460482728    -3.6496505690     0.3155768479
  136      C      -8.3177454109    -1.2616439489     0.2365600103
  137      C      -7.1125977549    -2.9998664597    -0.6103854603
  138      C      -7.5599095079    -2.2095775934    -1.6964336652
  139      C      -6.4363549879    -0.7276539894    -3.2326835383
  140      C      -6.4051029884     2.7442092524     0.9139735421
  141      C      -2.3800103331     1.7625267618    -0.8187819522
  142      C      -5.1061683631    -0.5906745979    -3.5700634274
  143      C      -4.9818688474    -0.1491304704     3.3335608682
  144      C      -3.2050191947     0.6984664095    -2.7900645156
  145      C      -2.0133545266    -0.8784330657     1.4454715029
  146      C      -8.1351478291     1.1808768537     0.6256670036
  147      C      -5.3954603034    -2.6736715715    -2.6988494574
  148      C      -2.4135373907     1.5864252448     1.4897002747
  149      C      -8.1801545246     0.1844090581    -1.7026811941
  150      C      -2.8696340319    -1.1105856526     2.5431698154
  151      C      -1.7251769349    -0.5919631608    -1.3200358049
  152      C      -6.9009259866    -2.5890434874     1.8056661840
  153      C      -6.8404193922    -1.4561651452     2.6625994450
  154      C      -1.8635458621    -1.8539716792    -0.7602800193
  155      C      -7.3535849122     1.8740687272     1.5110711109
  156      C      -4.6806053169     1.8860890352     2.4383470113
  157      C      -8.2438357430    -0.1512665351     1.1278889955
  158      C      -4.9080659384     3.0459727318    -0.8427255993
  159      C      -3.1289408851    -1.7193741885    -2.7358525822
  160      C      -3.3955181173     1.2540974255     2.5179930702
  161      C      -2.0335974740    -1.9730852172     0.6268996426
  162      C      -8.0418133381     1.3021859638    -0.8214431417
  163      C      -3.6829882504    -3.4703819508    -1.1142662191
  164      C      -7.1883839560     0.3507047894    -2.7083575183
  165      C      -5.8648479855    -3.6611032054    -0.5890200870
  166      C      -2.5482698314    -0.4959182908    -2.4317706953
  167      C      -2.7643007277    -2.5565784039    -1.6549383131
  168      C      -4.3959771369     2.5014638141    -2.0426573048
  169      C      -6.2786174338     2.8296631314    -0.4633053109
  170      C      -7.6110674207    -2.4211524765     0.5787049980
  171      C      -4.4587089861    -1.7642738216    -3.2994489098
  172      C      -3.4490158053    -2.3316703235     2.3844279265
  173      C      -7.5134433441    -0.2277603766     2.3361297149
  174      C      -5.6627508845    -3.1900766009     1.8021147271
  175      C      -7.0969165146     2.1373789339    -1.3873827991
  176      C      -8.2799071524    -1.1333431025    -1.1661509930
 ----------------------------------------------------------------
 Molecular Point Group                 C1    NOp =  1
 Largest Abelian Subgroup              C1    NOp =  1
 Nuclear Repulsion Energy = 35758.8282162854 hartrees
 There are      462 alpha and      462 beta electrons
 Requested basis set is 6-31G(d,p)
 There are 676 shells and 2360 basis functions

 Total QAlloc Memory Limit  20000 MB
 Mega-Array Size      4888 MB
 MEM_STATIC part      5000 MB
 A cutoff of  1.0D-08 yielded  39036 shell pairs
 There are    544556 function pairs
 
 -------------------------------------------------------
 OpenMP Integral Computing Module                       
 Release: version 1.0, May 2013, Q-Chem Inc. Pittsburgh 
 -------------------------------------------------------
 Integral Job Info:
 Integral job number is                      11
 Integral operator is                         1
 short-range coefficients                     0
 long-range coefficients              100000000
 Omega coefficients                           0
 if combine SR and LR in K                    0
 Integral screening is                        0
 Integral computing path is                   2
 max size of driver memory is            800000
 size of driver memory is                593474
 size of scratch memory is              2260544
 max col of scratch BK array               1296
 max len of scratch array in speh3          155
 max len of scratch index in speh4           18
 max int batch size is                      520
 min int batch size is                       52
 fixed nKL is                                52
 max L of basis functions is                  2
 order of int derivative is                   0
 number of shells is                        676
 number of basis is                        2360
 number of cartesian basis is              2360
 number of contracted shell pairs         39036
 number of primitive shell pairs         116650
 maxK2 (contraction) of shell pair           36
 max number of K2 of shell pair               1
 max number of CS2 of shell pair           7420
 max number of PS2 of shell pair          35034
 mem total for path MDJ                 1549592
 -------------------------------------------------------
 Smallest overlap matrix eigenvalue = 2.48E-04

 Scale SEOQF with 1.000000e-02/1.000000e-02/1.000000e-01

 Standard Electronic Orientation quadrupole field applied
 Nucleus-field energy     =    -0.0000002925 hartrees
 Guess from superposition of atomic densities
 Warning:  Energy on first SCF cycle will be non-variational
 A restricted hybrid HF-DFT SCF calculation will be
 performed using Pulay DIIS extrapolation
 Exchange:     0.2000 Hartree-Fock + 0.0800 Slater + 0.7200 B88
 Correlation:  0.1900 VWN1RPA + 0.8100 LYP
 Using SG-1 standard quadrature grid
 SCF converges when DIIS error is below 1.0E-05
 using 16 threads for integral computing 
 -------------------------------------------------------
 OpenMP BLAS3 based DFT computing Module                
 Release: version 1.0, May 2013, Q-Chem Inc. Pittsburgh 
 -------------------------------------------------------
 ---------------------------------------
  Cycle       Energy         DIIS Error
 ---------------------------------------
    1   -5858.2638344384      1.83E-02
    2   -5803.1073760975      1.30E-03
    3   -5802.2765012064      1.80E-03
    4   -5803.9236217798      6.75E-04
    5   -5804.1709337915      3.39E-04
    6   -5804.2458652137      1.53E-04
    7   -5804.2612879195      5.60E-05
    8   -5804.2628508550      3.39E-05
    9   -5804.2636614423      8.91E-06 Convergence criterion met
 ---------------------------------------
 SCF time:  CPU 8576.20 s  wall 883.92 s
 SCF   energy in the final basis set = -5804.2636614423
 Total energy in the final basis set = -5804.2636614423
 
 --------------------------------------------------------------
 
                    Orbital Energies (a.u.)
 --------------------------------------------------------------
 
 Alpha MOs
 -- Occupied --
-19.196 -19.184 -19.145 -19.140 -10.325 -10.312 -10.248 -10.247
-10.244 -10.242 -10.242 -10.241 -10.237 -10.236 -10.231 -10.229
-10.228 -10.228 -10.228 -10.227 -10.226 -10.225 -10.225 -10.225
-10.224 -10.223 -10.223 -10.223 -10.222 -10.222 -10.221 -10.221
-10.221 -10.221 -10.221 -10.220 -10.220 -10.220 -10.220 -10.220
-10.220 -10.220 -10.220 -10.219 -10.219 -10.218 -10.218 -10.218
-10.217 -10.217 -10.217 -10.217 -10.217 -10.217 -10.217 -10.217
-10.217 -10.216 -10.216 -10.216 -10.216 -10.216 -10.215 -10.215
-10.215 -10.215 -10.215 -10.215 -10.215 -10.215 -10.215 -10.215
-10.215 -10.215 -10.214 -10.214 -10.214 -10.214 -10.214 -10.214
-10.214 -10.214 -10.213 -10.213 -10.213 -10.213 -10.213 -10.212
-10.212 -10.212 -10.212 -10.212 -10.212 -10.211 -10.211 -10.211
-10.211 -10.211 -10.211 -10.211 -10.211 -10.211 -10.210 -10.210
-10.210 -10.210 -10.210 -10.210 -10.209 -10.209 -10.209 -10.209
-10.209 -10.208 -10.208 -10.208 -10.208 -10.207 -10.207 -10.207
-10.207 -10.207 -10.206 -10.206 -10.206 -10.206 -10.206 -10.205
-10.204 -10.204 -10.204 -10.204 -10.203 -10.203 -10.203 -10.202
-10.202 -10.202 -10.202 -10.198 -10.198 -10.198 -10.197 -10.196
-10.195 -10.194 -10.194 -10.193  -1.093  -1.088  -1.023  -1.015
 -0.988  -0.980  -0.968  -0.966  -0.963  -0.962  -0.961  -0.958
 -0.932  -0.931  -0.930  -0.927  -0.925  -0.925  -0.924  -0.924
 -0.920  -0.916  -0.897  -0.893  -0.890  -0.889  -0.888  -0.881
 -0.875  -0.870  -0.852  -0.847  -0.845  -0.841  -0.839  -0.837
 -0.837  -0.834  -0.826  -0.816  -0.813  -0.801  -0.801  -0.798
 -0.796  -0.796  -0.794  -0.792  -0.791  -0.787  -0.785  -0.783
 -0.775  -0.771  -0.768  -0.767  -0.766  -0.765  -0.764  -0.757
 -0.747  -0.743  -0.740  -0.736  -0.733  -0.727  -0.716  -0.716
 -0.715  -0.714  -0.712  -0.712  -0.711  -0.710  -0.709  -0.709
 -0.708  -0.707  -0.705  -0.705  -0.702  -0.696  -0.674  -0.668
 -0.660  -0.657  -0.657  -0.654  -0.650  -0.641  -0.633  -0.627
 -0.627  -0.626  -0.625  -0.624  -0.623  -0.618  -0.617  -0.616
 -0.615  -0.615  -0.614  -0.612  -0.610  -0.609  -0.608  -0.606
 -0.605  -0.604  -0.602  -0.600  -0.571  -0.566  -0.564  -0.563
 -0.559  -0.559  -0.557  -0.557  -0.556  -0.555  -0.554  -0.549
 -0.536  -0.534  -0.531  -0.530  -0.529  -0.528  -0.525  -0.524
 -0.523  -0.522  -0.520  -0.518  -0.517  -0.516  -0.514  -0.512
 -0.510  -0.506  -0.502  -0.492  -0.492  -0.490  -0.488  -0.486
 -0.482  -0.482  -0.481  -0.481  -0.478  -0.477  -0.477  -0.476
 -0.474  -0.473  -0.472  -0.471  -0.469  -0.468  -0.467  -0.465
 -0.464  -0.463  -0.462  -0.462  -0.461  -0.460  -0.459  -0.455
 -0.454  -0.454  -0.451  -0.450  -0.450  -0.448  -0.446  -0.442
 -0.442  -0.441  -0.441  -0.439  -0.437  -0.435  -0.434  -0.432
 -0.431  -0.430  -0.428  -0.428  -0.426  -0.426  -0.425  -0.424
 -0.423  -0.423  -0.421  -0.420  -0.419  -0.418  -0.417  -0.417
 -0.416  -0.415  -0.415  -0.414  -0.414  -0.413  -0.412  -0.412
 -0.411  -0.411  -0.408  -0.407  -0.403  -0.401  -0.399  -0.396
 -0.395  -0.392  -0.391  -0.390  -0.389  -0.388  -0.387  -0.385
 -0.383  -0.379  -0.375  -0.370  -0.369  -0.369  -0.367  -0.366
 -0.364  -0.363  -0.362  -0.362  -0.360  -0.358  -0.357  -0.356
 -0.355  -0.355  -0.354  -0.353  -0.353  -0.352  -0.351  -0.350
 -0.349  -0.349  -0.348  -0.348  -0.346  -0.346  -0.345  -0.344
 -0.343  -0.342  -0.340  -0.339  -0.338  -0.337  -0.337  -0.334
 -0.333  -0.332  -0.331  -0.328  -0.328  -0.326  -0.325  -0.323
 -0.312  -0.310  -0.299  -0.297  -0.288  -0.283  -0.272  -0.270
 -0.270  -0.269  -0.268  -0.268  -0.266  -0.265  -0.264  -0.264
 -0.262  -0.261  -0.260  -0.258  -0.256  -0.255  -0.254  -0.250
 -0.249  -0.246  -0.244  -0.242  -0.222  -0.218  -0.214  -0.213
 -0.211  -0.209  -0.205  -0.204  -0.200  -0.196
 -- Virtual --
 -0.123  -0.121  -0.121  -0.117  -0.108  -0.106  -0.079  -0.078
 -0.073  -0.072  -0.062  -0.058  -0.054  -0.049  -0.026  -0.025
 -0.025  -0.020  -0.018  -0.016  -0.016  -0.015  -0.014  -0.013
 -0.011  -0.009  -0.009  -0.008  -0.007  -0.005  -0.004   0.005
  0.006   0.016   0.035   0.035   0.041   0.042   0.043   0.046
  0.050   0.051   0.055   0.058   0.061   0.062   0.067   0.067
  0.071   0.074   0.083   0.084   0.085   0.086   0.087   0.091
  0.093   0.096   0.098   0.100   0.102   0.104   0.107   0.109
  0.110   0.111   0.112   0.115   0.116   0.119   0.122   0.123
  0.124   0.126   0.127   0.128   0.129   0.132   0.133   0.138
  0.140   0.143   0.144   0.146   0.149   0.151   0.155   0.157
  0.160   0.161   0.162   0.163   0.164   0.165   0.168   0.170
  0.170   0.170   0.172   0.175   0.176   0.177   0.181   0.182
  0.183   0.183   0.185   0.187   0.188   0.188   0.189   0.191
  0.193   0.194   0.195   0.197   0.199   0.199   0.202   0.206
  0.208   0.208   0.210   0.213   0.214   0.216   0.217   0.218
  0.220   0.221   0.222   0.223   0.224   0.224   0.227   0.227
  0.228   0.229   0.230   0.231   0.234   0.236   0.237   0.239
  0.239   0.243   0.245   0.245   0.247   0.248   0.255   0.255
  0.259   0.266   0.268   0.269   0.274   0.275   0.277   0.279
  0.279   0.281   0.287   0.290   0.293   0.295   0.297   0.301
  0.303   0.304   0.307   0.308   0.312   0.315   0.317   0.319
  0.320   0.321   0.323   0.324   0.327   0.327   0.329   0.332
  0.334   0.336   0.337   0.344   0.347   0.348   0.348   0.349
  0.350   0.351   0.354   0.359   0.359   0.368   0.379   0.384
  0.391   0.392   0.395   0.400   0.401   0.403   0.405   0.406
  0.406   0.408   0.411   0.414   0.415   0.417   0.419   0.421
  0.426   0.427   0.432   0.434   0.436   0.441   0.444   0.446
  0.446   0.447   0.451   0.454   0.455   0.457   0.458   0.459
  0.462   0.465   0.466   0.469   0.469   0.471   0.473   0.474
  0.476   0.477   0.477   0.480   0.481   0.483   0.484   0.485
  0.486   0.487   0.488   0.489   0.491   0.492   0.493   0.494
  0.495   0.496   0.497   0.500   0.501   0.503   0.503   0.504
  0.505   0.506   0.507   0.508   0.508   0.510   0.510   0.510
  0.512   0.513   0.513   0.514   0.515   0.516   0.517   0.517
  0.518   0.519   0.519   0.521   0.521   0.522   0.523   0.523
  0.526   0.526   0.527   0.529   0.529   0.530   0.530   0.531
  0.532   0.533   0.534   0.535   0.535   0.536   0.537   0.538
  0.539   0.539   0.540   0.541   0.542   0.543   0.544   0.545
  0.546   0.547   0.547   0.547   0.549   0.550   0.551   0.551
  0.552   0.553   0.554   0.555   0.555   0.556   0.556   0.556
  0.558   0.559   0.561   0.561   0.562   0.562   0.564   0.564
  0.565   0.566   0.566   0.567   0.568   0.569   0.570   0.571
  0.572   0.573   0.573   0.574   0.575   0.575   0.578   0.578
  0.579   0.580   0.582   0.583   0.583   0.584   0.585   0.585
  0.587   0.588   0.588   0.589   0.591   0.591   0.593   0.593
  0.594   0.595   0.595   0.596   0.598   0.598   0.599   0.601
  0.602   0.603   0.604   0.605   0.606   0.607   0.607   0.610
  0.610   0.611   0.612   0.612   0.613   0.615   0.617   0.618
  0.619   0.620   0.621   0.622   0.623   0.624   0.627   0.628
  0.629   0.629   0.629   0.631   0.633   0.634   0.634   0.635
  0.636   0.636   0.637   0.638   0.639   0.640   0.641   0.642
  0.645   0.645   0.648   0.648   0.649   0.650   0.651   0.651
  0.653   0.654   0.655   0.656   0.657   0.657   0.658   0.660
  0.661   0.662   0.662   0.663   0.664   0.664   0.665   0.666
  0.666   0.667   0.668   0.668   0.669   0.670   0.671   0.672
  0.673   0.673   0.674   0.675   0.676   0.677   0.681   0.681
  0.683   0.683   0.684   0.685   0.686   0.686   0.688   0.689
  0.690   0.691   0.693   0.693   0.695   0.695   0.697   0.697
  0.698   0.698   0.700   0.701   0.702   0.703   0.705   0.707
  0.708   0.708   0.710   0.712   0.712   0.714   0.716   0.718
  0.719   0.720   0.721   0.723   0.724   0.725   0.726   0.727
  0.728   0.728   0.731   0.731   0.732   0.733   0.735   0.735
  0.736   0.738   0.740   0.741   0.743   0.744   0.745   0.746
  0.748   0.749   0.751   0.751   0.754   0.754   0.756   0.757
  0.759   0.761   0.761   0.762   0.764   0.766   0.767   0.768
  0.771   0.772   0.772   0.773   0.773   0.777   0.777   0.778
  0.778   0.780   0.780   0.781   0.782   0.785   0.786   0.788
  0.790   0.792   0.793   0.793   0.793   0.795   0.797   0.798
  0.799   0.800   0.801   0.803   0.804   0.805   0.805   0.806
  0.807   0.807   0.808   0.809   0.810   0.811   0.811   0.812
  0.812   0.815   0.816   0.817   0.817   0.818   0.819   0.820
  0.821   0.821   0.821   0.823   0.824   0.825   0.826   0.827
  0.827   0.828   0.830   0.831   0.832   0.833   0.835   0.836
  0.838   0.841   0.843   0.845   0.847   0.848   0.851   0.854
  0.854   0.856   0.858   0.860   0.865   0.867   0.868   0.874
  0.877   0.879   0.885   0.887   0.889   0.892   0.893   0.895
  0.899   0.900   0.903   0.906   0.906   0.909   0.911   0.915
  0.915   0.918   0.919   0.921   0.924   0.926   0.927   0.927
  0.930   0.931   0.933   0.934   0.935   0.936   0.939   0.940
  0.941   0.943   0.944   0.948   0.950   0.952   0.953   0.955
  0.956   0.960   0.964   0.968   0.970   0.972   0.975   0.977
  0.979   0.982   0.984   0.985   0.988   0.988   0.989   0.994
  0.995   0.998   1.000   1.000   1.005   1.006   1.007   1.009
  1.011   1.013   1.015   1.016   1.019   1.019   1.021   1.022
  1.024   1.025   1.027   1.029   1.030   1.031   1.032   1.033
  1.034   1.038   1.039   1.040   1.042   1.043   1.044   1.046
  1.048   1.049   1.051   1.052   1.054   1.056   1.058   1.059
  1.061   1.063   1.064   1.066   1.067   1.070   1.072   1.074
  1.075   1.078   1.080   1.082   1.084   1.084   1.085   1.086
  1.088   1.089   1.092   1.094   1.095   1.097   1.097   1.101
  1.102   1.105   1.107   1.108   1.110   1.113   1.113   1.115
  1.116   1.121   1.121   1.122   1.124   1.127   1.128   1.129
  1.132   1.136   1.137   1.138   1.144   1.145   1.147   1.149
  1.149   1.152   1.154   1.159   1.160   1.161   1.162   1.163
  1.164   1.166   1.166   1.168   1.169   1.170   1.172   1.173
  1.175   1.178   1.178   1.179   1.182   1.185   1.185   1.186
  1.190   1.191   1.192   1.196   1.200   1.201   1.204   1.204
  1.207   1.211   1.212   1.214   1.216   1.221   1.223   1.224
  1.225   1.229   1.231   1.232   1.235   1.238   1.240   1.242
  1.244   1.250   1.251   1.253   1.257   1.258   1.262   1.263
  1.264   1.265   1.266   1.269   1.272   1.274   1.274   1.275
  1.280   1.281   1.282   1.287   1.288   1.290   1.291   1.294
  1.295   1.296   1.298   1.300   1.304   1.306   1.308   1.310
  1.312   1.317   1.318   1.320   1.323   1.325   1.328   1.330
  1.332   1.334   1.337   1.337   1.344   1.345   1.346   1.349
  1.350   1.353   1.354   1.358   1.361   1.362   1.365   1.367
  1.369   1.371   1.375   1.376   1.380   1.382   1.384   1.384
  1.387   1.389   1.393   1.397   1.398   1.401   1.402   1.404
  1.405   1.406   1.409   1.412   1.413   1.417   1.421   1.423
  1.426   1.430   1.433   1.435   1.442   1.443   1.446   1.447
  1.452   1.454   1.456   1.458   1.462   1.463   1.465   1.468
  1.469   1.470   1.473   1.475   1.475   1.477   1.480   1.481
  1.483   1.484   1.488   1.491   1.491   1.492   1.496   1.498
  1.500   1.505   1.507   1.509   1.513   1.515   1.515   1.520
  1.521   1.525   1.529   1.531   1.533   1.535   1.537   1.540
  1.542   1.543   1.545   1.547   1.550   1.553   1.555   1.557
  1.561   1.564   1.566   1.567   1.568   1.570   1.574   1.576
  1.578   1.581   1.582   1.583   1.588   1.590   1.592   1.594
  1.598   1.599   1.601   1.605   1.610   1.612   1.617   1.621
  1.624   1.627   1.628   1.633   1.637   1.639   1.641   1.643
  1.646   1.653   1.653   1.655   1.658   1.664   1.668   1.670
  1.676   1.678   1.680   1.688   1.689   1.693   1.694   1.701
  1.703   1.706   1.707   1.709   1.711   1.714   1.715   1.718
  1.721   1.722   1.723   1.726   1.730   1.730   1.733   1.735
  1.736   1.736   1.738   1.740   1.742   1.743   1.744   1.745
  1.747   1.749   1.749   1.752   1.753   1.754   1.756   1.758
  1.759   1.762   1.763   1.764   1.766   1.767   1.768   1.770
  1.771   1.772   1.773   1.773   1.775   1.776   1.777   1.778
  1.780   1.780   1.782   1.784   1.786   1.787   1.787   1.790
  1.790   1.790   1.792   1.794   1.794   1.796   1.797   1.799
  1.800   1.801   1.802   1.803   1.804   1.805   1.806   1.809
  1.812   1.812   1.814   1.815   1.816   1.817   1.821   1.821
  1.823   1.826   1.828   1.830   1.833   1.835   1.837   1.840
  1.841   1.844   1.845   1.846   1.849   1.851   1.853   1.855
  1.857   1.859   1.862   1.866   1.867   1.869   1.869   1.872
  1.874   1.875   1.877   1.878   1.879   1.881   1.883   1.884
  1.887   1.887   1.890   1.893   1.898   1.901   1.903   1.905
  1.907   1.909   1.912   1.913   1.915   1.917   1.919   1.920
  1.920   1.925   1.925   1.926   1.930   1.934   1.935   1.940
  1.940   1.944   1.946   1.947   1.948   1.949   1.950   1.954
  1.956   1.958   1.960   1.963   1.964   1.967   1.968   1.970
  1.972   1.974   1.975   1.978   1.979   1.980   1.981   1.983
  1.984   1.986   1.989   1.991   1.992   1.993   1.994   1.995
  1.997   1.997   1.998   2.001   2.002   2.004   2.006   2.007
  2.009   2.010   2.012   2.012   2.013   2.014   2.015   2.018
  2.019   2.020   2.021   2.022   2.023   2.025   2.025   2.026
  2.028   2.031   2.031   2.032   2.033   2.034   2.035   2.035
  2.037   2.038   2.039   2.042   2.043   2.043   2.045   2.046
  2.047   2.048   2.049   2.052   2.053   2.053   2.055   2.056
  2.057   2.058   2.060   2.061   2.062   2.064   2.065   2.067
  2.069   2.070   2.070   2.071   2.071   2.073   2.076   2.077
  2.079   2.080   2.082   2.084   2.084   2.085   2.087   2.089
  2.089   2.090   2.092   2.093   2.094   2.094   2.098   2.099
  2.101   2.103   2.105   2.106   2.111   2.111   2.116   2.117
  2.121   2.122   2.126   2.129   2.133   2.135   2.140   2.143
  2.144   2.147   2.149   2.151   2.155   2.156   2.161   2.162
  2.166   2.170   2.175   2.184   2.188   2.191   2.196   2.199
  2.201   2.205   2.207   2.211   2.215   2.217   2.218   2.225
  2.227   2.232   2.233   2.237   2.241   2.244   2.247   2.249
  2.249   2.253   2.255   2.256   2.258   2.260   2.262   2.264
  2.265   2.266   2.269   2.271   2.271   2.277   2.277   2.281
  2.283   2.286   2.287   2.289   2.291   2.292   2.295   2.296
  2.298   2.298   2.301   2.303   2.310   2.311   2.316   2.316
  2.317   2.319   2.322   2.324   2.325   2.329   2.332   2.335
  2.337   2.340   2.343   2.344   2.348   2.350   2.352   2.354
  2.355   2.356   2.358   2.360   2.361   2.363   2.364   2.369
  2.370   2.371   2.372   2.375   2.376   2.378   2.379   2.380
  2.382   2.383   2.386   2.387   2.389   2.392   2.393   2.394
  2.396   2.398   2.400   2.402   2.404   2.406   2.406   2.407
  2.409   2.412   2.414   2.417   2.420   2.421   2.423   2.425
  2.427   2.428   2.431   2.434   2.437   2.440   2.442   2.443
  2.447   2.449   2.451   2.451   2.455   2.456   2.460   2.461
  2.463   2.467   2.470   2.471   2.473   2.474   2.478   2.480
  2.482   2.483   2.484   2.486   2.487   2.489   2.490   2.495
  2.498   2.498   2.499   2.501   2.502   2.506   2.507   2.508
  2.510   2.512   2.512   2.518   2.520   2.522   2.522   2.523
  2.524   2.528   2.529   2.531   2.533   2.534   2.535   2.537
  2.540   2.544   2.546   2.547   2.555   2.556   2.561   2.562
  2.565   2.569   2.574   2.575   2.578   2.580   2.581   2.583
  2.587   2.589   2.590   2.591   2.594   2.596   2.598   2.601
  2.603   2.604   2.607   2.610   2.610   2.612   2.615   2.617
  2.620   2.623   2.624   2.625   2.628   2.630   2.632   2.634
  2.635   2.636   2.638   2.642   2.644   2.645   2.648   2.649
  2.651   2.652   2.653   2.655   2.656   2.659   2.661   2.663
  2.664   2.664   2.667   2.668   2.669   2.671   2.674   2.675
  2.676   2.679   2.680   2.681   2.684   2.685   2.686   2.690
  2.693   2.695   2.696   2.697   2.698   2.702   2.702   2.706
  2.707   2.710   2.713   2.714   2.716   2.721   2.722   2.725
  2.726   2.729   2.732   2.734   2.737   2.739   2.741   2.742
  2.743   2.744   2.749   2.751   2.752   2.754   2.756   2.760
  2.761   2.766   2.768   2.769   2.771   2.771   2.773   2.774
  2.776   2.779   2.781   2.783   2.786   2.788   2.795   2.799
  2.800   2.803   2.805   2.808   2.812   2.813   2.817   2.821
  2.824   2.826   2.829   2.830   2.834   2.839   2.840   2.840
  2.844   2.847   2.850   2.853   2.853   2.854   2.857   2.860
  2.860   2.863   2.866   2.868   2.869   2.872   2.875   2.877
  2.878   2.880   2.882   2.883   2.884   2.886   2.888   2.891
  2.892   2.896   2.898   2.898   2.900   2.901   2.903   2.905
  2.905   2.908   2.910   2.912   2.912   2.914   2.917   2.919
  2.920   2.924   2.926   2.927   2.928   2.930   2.933   2.934
  2.935   2.939   2.944   2.946   2.948   2.950   2.953   2.956
  2.958   2.959   2.963   2.964   2.969   2.971   2.973   2.978
  2.980   2.984   2.986   2.988   2.989   2.991   2.996   2.997
  2.999   3.005   3.007   3.010   3.017   3.018   3.019   3.022
  3.023   3.026   3.030   3.031   3.033   3.036   3.040   3.042
  3.044   3.047   3.051   3.053   3.056   3.059   3.059   3.064
  3.065   3.069   3.073   3.078   3.084   3.084   3.097   3.101
  3.104   3.112   3.114   3.122   3.127   3.130   3.136   3.140
  3.147   3.155   3.158   3.163   3.168   3.174   3.176   3.182
  3.185   3.189   3.210   3.217   3.221   3.225   3.230   3.241
  3.244   3.248   3.251   3.260   3.262   3.268   3.270   3.277
  3.286   3.297   3.307   3.309   3.314   3.317   3.320   3.325
  3.328   3.337   3.341   3.347   3.352   3.361   3.366   3.379
  3.399   3.405   3.416   3.423   3.426   3.432   3.435   3.436
  3.444   3.451   3.461   3.464   3.469   3.489   3.490   3.495
  3.501   3.506   3.508   3.511   3.516   3.518   3.531   3.539
  3.553   3.559   3.564   3.575   3.576   3.579   3.582   3.605
  3.609   3.621   3.676   3.704   3.833   3.847   3.962   4.046
  4.067   4.075   4.082   4.088   4.090   4.092   4.098   4.103
  4.107   4.108   4.109   4.111   4.117   4.119   4.122   4.125
  4.128   4.132   4.135   4.138   4.147   4.150   4.152   4.159
  4.162   4.162   4.164   4.166   4.171   4.177   4.180   4.185
  4.187   4.193   4.202   4.206   4.224   4.226   4.231   4.240
  4.247   4.250   4.251   4.255   4.259   4.261   4.263   4.269
  4.271   4.275   4.280   4.286   4.288   4.292   4.294   4.300
  4.305   4.314   4.325   4.346   4.373   4.386   4.392   4.392
  4.397   4.398   4.405   4.408   4.413   4.414   4.415   4.419
  4.421   4.423   4.429   4.434   4.438   4.446   4.455   4.469
  4.489   4.504   4.510   4.518   4.532   4.535   4.555   4.557
  4.559   4.568   4.616   4.622   4.623   4.635   4.636   4.638
  4.643   4.661   4.673   4.686   4.691   4.693   4.698   4.700
  4.706   4.709   4.711   4.716   4.739   4.756   4.776   4.815
  4.827   4.832   4.860   4.865   4.873   4.878   4.883   4.885
  4.900   4.904   4.951   4.958   4.959   4.964   4.973   4.982
  4.984   4.988   4.997   5.012   5.142   5.166   5.181   5.189
  5.198   5.202   5.207   5.211   5.294   5.326   5.333   5.342
  5.350   5.351
 --------------------------------------------------------------
 
          Ground-State Mulliken Net Atomic Charges

     Atom                 Charge (a.u.)
  ----------------------------------------
      1 O                    -0.467800
      2 C                    -0.085320
      3 H                     0.125832
      4 H                     0.120672
      5 H                     0.131560
      6 O                    -0.454694
      7 C                     0.579215
      8 C                    -0.230022
      9 H                     0.126852
     10 H                     0.114759
     11 C                    -0.191896
     12 H                     0.124327
     13 H                     0.106620
     14 C                    -0.190266
     15 H                     0.112492
     16 H                     0.133180
     17 C                     0.011082
     18 C                     0.092373
     19 C                    -0.121806
     20 H                     0.085397
     21 C                    -0.097916
     22 H                     0.098042
     23 C                    -0.075407
     24 H                     0.094051
     25 C                    -0.094915
     26 H                     0.084471
     27 C                    -0.092839
     28 H                     0.103133
     29 C                    -0.016805
     30 C                     0.002963
     31 C                    -0.035670
     32 C                    -0.021489
     33 C                     0.007729
     34 C                    -0.002215
     35 C                     0.031459
     36 C                    -0.004917
     37 C                     0.018508
     38 C                    -0.013674
     39 C                    -0.080306
     40 C                     0.006723
     41 C                    -0.010744
     42 C                    -0.002230
     43 C                     0.008713
     44 C                    -0.008660
     45 C                    -0.102648
     46 C                     0.002839
     47 C                     0.008635
     48 C                     0.047331
     49 C                    -0.009222
     50 C                    -0.020979
     51 C                     0.005962
     52 C                     0.016014
     53 C                     0.018896
     54 C                    -0.008699
     55 C                     0.003573
     56 C                    -0.011608
     57 C                    -0.015581
     58 C                    -0.018147
     59 C                    -0.016176
     60 C                     0.028869
     61 C                    -0.009045
     62 C                    -0.015563
     63 C                    -0.006371
     64 C                    -0.012136
     65 C                    -0.014602
     66 C                    -0.003437
     67 C                    -0.011301
     68 C                     0.025170
     69 C                    -0.036163
     70 C                     0.020750
     71 C                     0.016169
     72 C                     0.008530
     73 C                    -0.012503
     74 C                     0.019844
     75 C                     0.026141
     76 C                    -0.006237
     77 C                     0.026346
     78 C                     0.001127
     79 C                    -0.013871
     80 C                     0.005010
     81 C                     0.036548
     82 C                     0.004157
     83 C                     0.015357
     84 C                     0.011723
     85 C                     0.021433
     86 C                    -0.018311
     87 C                     0.004294
     88 C                    -0.003872
     89 O                    -0.479078
     90 C                    -0.085796
     91 H                     0.127852
     92 H                     0.121568
     93 H                     0.120545
     94 O                    -0.442462
     95 C                     0.582015
     96 C                    -0.235181
     97 H                     0.125002
     98 H                     0.125684
     99 C                    -0.205275
    100 H                     0.124599
    101 H                     0.116027
    102 C                    -0.186969
    103 H                     0.104949
    104 H                     0.114116
    105 C                     0.016533
    106 C                     0.089512
    107 C                    -0.114965
    108 H                     0.093154
    109 C                    -0.081768
    110 H                     0.097283
    111 C                    -0.090407
    112 H                     0.086356
    113 C                    -0.083964
    114 H                     0.096959
    115 C                    -0.122715
    116 H                     0.089320
    117 C                     0.030438
    118 C                    -0.008490
    119 C                    -0.015210
    120 C                     0.011202
    121 C                     0.009097
    122 C                    -0.000811
    123 C                     0.018733
    124 C                     0.013070
    125 C                     0.015554
    126 C                    -0.030226
    127 C                    -0.050622
    128 C                     0.025413
    129 C                     0.020619
    130 C                    -0.031151
    131 C                    -0.011667
    132 C                     0.008841
    133 C                    -0.098594
    134 C                     0.019888
    135 C                    -0.027682
    136 C                     0.017814
    137 C                    -0.002486
    138 C                    -0.016449
    139 C                     0.003359
    140 C                     0.001390
    141 C                     0.024681
    142 C                     0.021969
    143 C                     0.006420
    144 C                     0.003442
    145 C                    -0.003446
    146 C                     0.009979
    147 C                     0.012860
    148 C                    -0.012973
    149 C                    -0.028393
    150 C                    -0.005557
    151 C                    -0.000348
    152 C                    -0.011734
    153 C                    -0.017398
    154 C                    -0.031900
    155 C                    -0.027173
    156 C                     0.008345
    157 C                    -0.026867
    158 C                     0.036164
    159 C                    -0.007711
    160 C                    -0.010406
    161 C                     0.026801
    162 C                     0.005526
    163 C                     0.001987
    164 C                    -0.021064
    165 C                     0.007253
    166 C                     0.019378
    167 C                    -0.003484
    168 C                    -0.004198
    169 C                     0.006940
    170 C                    -0.001530
    171 C                    -0.031931
    172 C                    -0.003674
    173 C                     0.018993
    174 C                     0.014541
    175 C                    -0.009203
    176 C                    -0.000024
  ----------------------------------------
  Sum of atomic charges =     0.000000

 -----------------------------------------------------------------
                    Cartesian Multipole Moments
 -----------------------------------------------------------------
    Charge (ESU x 10^10)
                 0.0000
    Dipole Moment (Debye)
         X       2.1222      Y      -0.9883      Z       0.3723
       Tot       2.3705
    Quadrupole Moments (Debye-Ang)
        XX    -813.6280     XY     -23.5827     YY    -753.8678
        XZ      -3.9452     YZ     -17.9566     ZZ    -814.8085
    Octopole Moments (Debye-Ang^2)
       XXX     172.7213    XXY      -6.1211    XYY     145.5630
       YYY    -294.0761    XXZ      12.4574    XYZ      14.5984
       YYZ     149.6274    XZZ      13.4734    YZZ     -30.8049
       ZZZ      14.5522
    Hexadecapole Moments (Debye-Ang^3)
      XXXX -113012.0161   XXXY    -692.0209   XXYY  -26732.2249
      XYYY   -1477.7006   YYYY  -48280.5045   XXXZ     258.3502
      XXYZ     173.3166   XYYZ     130.7207   YYYZ    -707.1279
      XXZZ  -22372.4052   XYZZ    -320.3216   YYZZ  -12163.6973
      XZZZ       7.1628   YZZZ    -254.9606   ZZZZ  -22408.5444
 -----------------------------------------------------------------
Archival summary:
1\1\mn251\SP\ProcedureUnspecified\6-31G**\428\afmv_a\FriOct1211:26:332018FriOct1211:26:332018\0\\#,ProcedureUnspecified,6-31G**,\\0,1\C\C,1,1.36563\C,1,1.3962,2,121.735\C,2,1.40206,1,109.72,3,-145.969,0\C,1,1.40467,2,110.402,3,151.024,0\C,3,1.40554,1,120.451,2,0.73698,0\C,6,1.39683,3,106.631,1,145.703,0\C,7,1.39392,6,118.423,3,-142.012,0\C,8,1.39595,7,118.512,6,3.94304,0\C,9,1.36767,8,122.961,7,-12.0113,0\C,9,1.37731,8,111.217,7,143.449,0\C,11,1.37796,9,123.517,8,-142.92,0\C,12,1.40307,11,117.036,9,-4.1197,0\C,13,1.38043,12,116.969,11,-3.8241,0\C,13,1.39279,12,107.587,11,141.041,0\C,15,1.37022,13,118.838,12,-143.845,0\C,16,1.36543,15,122.561,13,-1.40031,0\C,17,1.37222,16,107.973,15,143.507,0\C,15,1.37354,13,108.956,12,3.49723,0\C,16,1.38675,15,120.106,13,142.686,0\C,20,1.35656,16,107.544,15,-145.14,0\C,21,1.37201,20,120.533,16,147.712,0\C,20,1.38623,16,119.576,15,-0.75588,0\C,23,1.38157,20,120.184,16,-138.364,0\C,24,1.38182,23,116.636,20,-1.77721,0\C,19,1.39064,15,108.596,13,-2.01961,0\C,23,1.39073,20,119.084,16,-3.44079,0\C,27,1.34057,23,108.631,20,-140.586,0\C,28,1.35647,27,109.971,23,0.298275,0\C,6,1.40405,3,120.234,1,-0.907997,0\C,25,1.40957,24,118.422,23,139.043,0\C,31,1.38143,25,109.412,24,-145.906,0\C,32,1.38982,31,120.048,25,140.008,0\C,33,1.38911,32,121.198,31,-133.005,0\C,31,1.40913,25,120.125,24,0.291457,0\C,35,1.39632,31,119.717,25,-135.838,0\C,36,1.39831,35,119.5,31,-6.43757,0\C,37,1.37467,36,117.704,35,139.772,0\C,35,1.39935,31,122.159,25,-3.45819,0\C,39,1.36761,35,114.351,31,-141.446,0\C,40,1.38136,39,103.389,35,5.06071,0\C,40,1.38188,39,120.035,35,137.463,0\C,42,1.37487,40,122.6,39,4.65919,0\C,43,1.35285,42,112.66,40,-147.046,0\C,44,1.37926,43,106.765,42,4.34855,0\C,45,1.40267,44,120.212,43,144.054,0\C,41,1.41143,40,120.331,39,143.071,0\C,47,1.36166,41,122.539,40,-4.28769,0\C,14,1.41273,13,113.897,12,142.66,0\C,48,1.41572,47,118.294,41,0.782143,0\C,8,1.4161,7,121.115,6,137.409,0\C,34,1.41685,33,110.448,32,144.668,0\C,52,1.40259,34,120.32,33,-142.516,0\C,30,1.4212,6,118.339,3,4.1758,0\C,51,1.42318,8,117.491,7,2.3351,0\C,53,1.4258,52,121.732,34,138.484,0\C,56,1.42054,53,117.925,52,-5.57559,0\C,47,1.43165,41,117.534,40,-149.017,0\C,4,1.48493,2,110.451,1,-10.8298,0\C,22,1.4892,21,120.137,20,-149.956,0\C,60,1.54792,22,126.948,21,-69.775,0\C,61,1.49349,60,121.093,22,-150.214,0\C,62,1.39699,61,119.843,60,-140.459,0\H,63,1.08621,62,117.384,61,3.76996,0\C,63,1.39258,62,117.353,61,-179.821,0\H,65,1.08575,63,116.265,62,179.508,0\C,65,1.38352,63,126.782,62,11.3259,0\H,67,1.08591,65,119.58,63,169.523,0\C,67,1.39879,65,117.753,63,-11.6494,0\H,69,1.08598,67,121.256,65,163.745,0\C,69,1.42961,67,116.575,65,3.79326,0\H,71,1.08596,69,116.483,67,168.63,0\C,61,1.55816,60,118.748,22,-2.20039,0\H,73,1.09643,61,113.588,60,54.7797,0\H,73,1.0976,61,108.564,60,176.622,0\C,73,1.54272,61,108.433,60,-73.9723,0\H,76,1.09625,73,114.811,61,74.6186,0\H,76,1.09748,73,108.667,61,-45.4643,0\C,76,1.48789,73,111.344,61,-165.638,0\H,79,1.09646,76,109.462,73,-173.609,0\H,79,1.09672,76,108.893,73,-58.9337,0\C,79,1.53298,76,115.001,73,70.3217,0\O,82,1.2275,79,120.998,76,-102.339,0\O,82,1.39582,79,112.038,76,68.9403,0\C,84,1.42042,82,121.182,79,160.922,0\H,85,1.09616,84,103.398,82,165.878,0\H,85,1.09683,84,115.393,82,-71.9286,0\H,85,1.09781,84,113.797,82,48.8772,0\H,55,2.64173,51,103.712,8,80.2821,0\C,89,1.09644,55,156.939,51,4.7493,0\H,90,1.09734,89,112.443,55,165.065,0\H,90,1.09734,89,109.073,55,40.4009,0\O,90,1.43444,89,109.873,55,-77.8415,0\C,93,1.38714,90,116.144,89,-61.461,0\O,94,1.18089,93,127.118,90,6.78758,0\C,94,1.56903,93,108.683,90,-168.463,0\H,96,1.09652,94,108.239,93,162.712,0\H,96,1.09694,94,103.249,93,32.6728,0\C,96,1.52712,94,109.794,93,-82.4012,0\H,99,1.09703,96,110.994,94,-62.1056,0\H,99,1.09722,96,106.404,94,51.4967,0\C,99,1.58215,96,112.69,94,176.639,0\H,102,1.09611,99,110.58,96,-51.633,0\H,102,1.09766,99,111.69,96,57.6725,0\C,102,1.53776,99,109.305,96,-179.332,0\C,105,1.50158,102,119.391,99,-137.147,0\C,106,1.46812,105,133.825,102,10.7894,0\C,107,1.41188,106,120.735,105,65.3584,0\C,108,1.39516,107,120.359,106,156.862,0\C,109,1.40762,108,106.361,107,-144.686,0\C,110,1.38452,109,124.133,108,139.656,0\C,111,1.36297,110,119.147,109,-5.10185,0\C,109,1.41017,108,118.607,107,-11.1493,0\C,113,1.37927,109,119.723,108,-131.39,0\C,113,1.41018,109,121.787,108,10.1629,0\C,115,1.36941,113,109.284,109,-141.33,0\C,114,1.41392,113,107.154,109,142.085,0\C,115,1.4189,113,118.68,109,-7.03068,0\C,118,1.38571,115,121.137,113,-130.001,0\C,119,1.4152,118,124.475,115,-3.31871,0\C,120,1.37915,119,119.522,118,140.947,0\C,121,1.33959,120,125.071,119,1.86216,0\C,120,1.38227,119,115.055,118,2.07624,0\C,111,1.41913,110,119.889,109,-144.107,0\C,112,1.42176,111,108.094,110,-140.918,0\C,125,1.37635,112,108.133,111,0.865306,0\C,126,1.40005,125,120.789,112,141.076,0\C,127,1.41753,126,122.373,125,-143.21,0\C,128,1.38648,127,115.386,126,8.80098,0\C,129,1.40586,128,124.476,127,-11.3048,0\C,130,1.36086,129,107.196,128,145.77,0\C,131,1.37276,130,121.102,129,-136.827,0\C,132,1.38921,131,122.593,130,142.899,0\C,129,1.40615,128,119.849,127,136.08,0\C,134,1.36702,129,106.472,128,-146.349,0\C,134,1.40263,129,120.822,128,-2.1772,0\C,136,1.38749,134,119.23,129,-136.213,0\C,137,1.3866,136,109.103,134,133.444,0\C,138,1.38798,137,111.281,136,7.0436,0\C,138,1.40934,137,122.626,136,-144.821,0\C,140,1.39925,138,122.316,137,3.64244,0\C,141,1.40961,140,116.399,138,0.934412,0\C,140,1.41292,138,119.692,137,146.715,0\C,143,1.39322,140,119.644,138,-3.87531,0\C,144,1.3674,143,121.418,140,7.64036,0\C,144,1.37912,143,119.559,140,-133.766,0\C,146,1.41227,144,107.689,143,143.649,0\C,147,1.3799,146,108.812,144,0.357022,0\C,147,1.38631,146,119.064,144,-147.434,0\C,149,1.39924,147,121.195,146,4.37815,0\C,150,1.40907,149,108.726,147,135.395,0\C,151,1.40033,150,107.762,149,-0.29161,0\C,152,1.41327,151,108.149,150,-1.08362,0\C,153,1.41229,152,119.381,151,-145.747,0\C,154,1.40691,153,121.219,152,142.333,0\C,155,1.40698,154,106.339,153,-140.898,0\C,156,1.40405,155,119.432,154,137.588,0\C,146,1.41539,144,121.831,143,0.377852,0\C,141,1.41902,140,108.443,138,142.7,0\C,159,1.4137,141,118.442,140,-138.457,0\C,137,1.41922,136,118.494,134,-1.12512,0\C,161,1.39626,137,123.763,136,-3.03364,0\C,162,1.39915,161,111.784,137,152.557,0\C,158,1.4222,146,122.914,144,143.134,0\C,105,1.50837,102,121.053,99,-66.1873,0\C,105,1.55858,102,112.268,99,77.0857,0\C,166,1.39411,105,119.42,102,-92.1353,0\H,167,1.08523,166,117.984,105,-2.06726,0\C,167,1.424,166,122.103,105,-173.396,0\H,169,1.08542,167,116.444,166,-177.187,0\C,169,1.3725,167,118.265,166,2.79202,0\H,171,1.08684,169,119.222,167,-178.718,0\C,171,1.41777,169,123.334,167,0.946752,0\H,173,1.08584,171,125.174,169,178.3,0\C,173,1.42968,171,117.355,169,-5.70583,0\H,175,1.08556,173,119.936,171,175.281,0\\\@

 Total job time:  900.28s(wall), 8602.65s(cpu) 
 Fri Oct 12 11:26:33 2018

        *************************************************************
        *                                                           *
        *  Thank you very much for using Q-Chem.  Have a nice day.  *
        *                                                           *
        *************************************************************


