
Running Job 1 of 1 ./9/17.qcin
qchem ./9/17.qcin_30742.0 /tmpu/cab_g/afmv_a/scratch_qchem/qchem30742/ 1
/tmpu/appuserlic/qchem4.4/serial-multicore/exe/qcprog.exe_s ./9/17.qcin_30742.0 /tmpu/cab_g/afmv_a/scratch_qchem/qchem30742/
Check license passed

                  Welcome to Q-Chem
     A Quantum Leap Into The Future Of Chemistry


 Q-Chem 4.4, Q-Chem, Inc., Pleasanton, CA (2016)

 Y. Shao,  Z. Gan,  E. Epifanovsky,  A. T. B. Gilbert,  M. Wormit,  
 J. Kussmann,  A. W. Lange,  A. Behn,  J. Deng,  X. Feng,  D. Ghosh,  
 M. Goldey,  P. R. Horn,  L. D. Jacobson,  I. Kaliman,  F. Rob,  
 R. Z. Khaliullin,  T. Kus,  A. Landau,  J. Liu,  E. I. Proynov,  Y. M. Rhee,  
 R. M. Richard,  M. A. Rohrdanz,  R. P. Steele,  E. J. Sundstrom,  
 H. L. Woodcock III,  P. M. Zimmerman,  D. Zuev,  B. Albrecht,  E. Alguire,  
 B. Austin,  S. A. Baeppler,  G. J. O. Beran,  Y. A. Bernard,  E. Berquist,  
 K. Brandhorst,  K. B. Bravaya,  S. T. Brown,  D. Casanova,  C.-M. Chang,  
 Y. Chen,  S. H. Chien,  K. D. Closser,  M. P. Coons,  D. L. Crittenden,  
 S. Dasgupta,  M. Diedenhofen,  R. A. DiStasio Jr.,  H. Do,  A. D. Dutoi,  
 R. G. Edgar,  P.-T. Fang,  S. Fatehi,  Q. Feng,  L. Fusti-Molnar,  
 A. Ghysels,  A. Golubeva-Zadorozhnaya,  J. Gomes,  A. Gunina,  
 M. W. D. Hanson-Heine,  P. H. P. Harbach,  A. W. Hauser,  J. E. Herr,  
 E. G. Hohenstein,  Z. C. Holden,  K. Hui,  T.-C. Jagau,  H. Ji,  B. Kaduk,  
 K. Khistyaev,  Jaehoon Kim,  Jihan Kim,  R. A. King,  P. Klunzinger,  
 K. Koh,  D. Kosenkov,  T. Kowalczyk,  C. M. Krauter,  A. Kunitsa,  
 K. U. Lao,  A. Laurent,  K. V. Lawler,  J. Lee,  D. Lefrancois,  S. Lehtola,  
 S. V. Levchenko,  C. Y. Lin,  Y.-S. Lin,  F. Liu,  E. Livshits,  
 R. C. Lochan,  A. Luenser,  P. Manohar,  S. F. Manzer,  S.-P. Mao,  Y. Mao,  
 N. Mardirossian,  A. V. Marenich,  L. A. Martinez-Martinez,  S. A. Maurer,  
 N. J. Mayhall,  J.-M. Mewes,  A. F. Morrison,  K. Nanda,  T. S. Nguyen-Beck,  
 C. M. Oana,  R. Olivares-Amaya,  D. P. O'Neill,  J. A. Parkhill,  
 T. M. Perrine,  R. Peverati,  P. A. Pieniazek,  F. Plasser,  A. Prociuk,  
 D. R. Rehn,  E. Rosta,  N. J. Russ,  N. Sergueev,  S. M. Sharada,  
 S. Sharma,  D. W. Small,  A. Sodt,  T. Stauch,  T. Stein,  D. Stuck,  
 Y.-C. Su,  A. J. W. Thom,  T. Tsuchimochi,  L. Vogt,  O. Vydrov,  T. Wang,  
 M. A. Watson,  J. Wenzel,  A. White,  C. F. Williams,  V. Vanovschi,  
 K. Yao,  S. Yeganeh,  S. R. Yost,  Z.-Q. You,  I. Y. Zhang,  X. Zhang,  
 Y. Zhao,  B. R. Brooks,  G. K. L. Chan,  D. M. Chipman,  C. J. Cramer,  
 W. A. Goddard III,  M. S. Gordon,  W. J. Hehre,  A. Klamt,  
 H. F. Schaefer III,  M. W. Schmidt,  C. D. Sherrill,  D. G. Truhlar,  
 A. Warshel,  X. Xu,  A. Aspuru-Guzik,  R. Baer,  A. T. Bell,  N. A. Besley,  
 J.-D. Chai,  A. Dreuw,  B. D. Dunietz,  T. R. Furlani,  S. R. Gwaltney,  
 C.-P. Hsu,  Y. Jung,  J. Kong,  D. S. Lambrecht,  W. Liang,  C. Ochsenfeld,  
 V. A. Rassolov,  L. V. Slipchenko,  J. E. Subotnik,  T. Van Voorhis,  
 J. M. Herbert,  A. I. Krylov,  P. M. W. Gill,  M. Head-Gordon

 Contributors to earlier versions of Q-Chem not listed above: 
 R. D. Adamson,  J. Baker,  E. F. C. Byrd,  A. K. Chakraborty,  C.-L. Cheng,  
 H. Dachsel,  R. J. Doerksen,  G. Hawkins,  A. Heyden,  S. Hirata,  
 G. Kedziora,  F. J. Keil,  C. Kelley,  P. P. Korambath,  W. Kurlancheek,  
 A. M. Lee,  M. S. Lee,  D. Liotard,  I. Lotan,  P. E. Maslen,  N. Nair,  
 D. Neuhauser,  R. Olson,  B. Peters,  J. Ritchie,  N. E. Schultz,  
 N. Shenvi,  A. C. Simmonett,  K. S. Thanthiriwatte,  Q. Wu,  W. Zhang

 Please cite Q-Chem as follows:
 Y. Shao et al., Mol. Phys. 113, 184-215 (2015)
 DOI: 10.1080/00268976.2014.952696

 Q-Chem 4.4.2 for Intel X86 Linux

 Parts of Q-Chem use Armadillo 5.200.1 (Boston Tea Smuggler).
 http://arma.sourceforge.net/

 Q-Chem begins on Fri Oct 12 12:53:56 2018  

Host: 
0

     Scratch files written to /tmpu/cab_g/afmv_a/scratch_qchem/qchem30742//
 Dec716 11556_ 22328  22283 4050   
Processing $rem in /tmpu/appuserlic/qchem4.4/serial-multicore/config/preferences.
 MEM_TOTAL  2000 
FILE_GEOM_ORG=        593

Checking the input file for inconsistencies... 	...done.

--------------------------------------------------------------
User input:
--------------------------------------------------------------
$comment
SP
$end

$rem
MEM_STATIC 5000
MEM_TOTAL 20000
JOBTYPE SP
EXCHANGE B3LYP
BASIS 6-31g(d,p)
$end

$molecule
0 1
O          16.665000     -9.817000     -6.737000
C          17.512000     -9.673000     -5.588000
H          16.963000    -10.068000     -4.725000
H          17.900000     -8.663000     -5.407000
H          18.370000    -10.344000     -5.718000
O          18.406000     -8.884000     -8.122000
C          17.246000     -9.307000     -7.934000
C          16.198000     -9.211000     -9.012000
H          15.519000     -8.398000     -8.729000
H          15.618000    -10.129000     -9.174000
C          16.716000     -8.787000    -10.390000
H          17.229000     -7.818000    -10.435000
H          17.500000     -9.432000    -10.806000
C          15.594000     -8.728000    -11.440000
H          16.032000     -8.716000    -12.446000
H          15.206000     -9.752000    -11.504000
C          14.559000     -7.597000    -11.299000
C          15.114000     -6.157000    -11.401000
C          15.206000     -5.603000    -12.687000
H          15.128000     -6.271000    -13.540000
C          15.623000     -4.244000    -12.862000
H          15.776000     -3.785000    -13.834000
C          15.789000     -3.403000    -11.781000
H          15.905000     -2.329000    -11.891000
C          15.649000     -3.972000    -10.494000
H          15.903000     -3.328000     -9.658000
C          15.428000     -5.372000    -10.288000
H          15.420000     -5.766000     -9.276000
C          10.069000     -5.679000     -8.753000
C           9.763000     -4.769000    -10.993000
C           6.409000     -7.551000    -12.156000
C          10.753000    -10.750000     -8.868000
C           8.398000     -9.696000    -14.006000
C          10.596000     -5.153000     -9.941000
C           9.276000    -11.692000    -11.113000
C           6.758000     -6.359000    -10.081000
C          11.504000     -7.197000    -13.695000
C          11.414000    -11.069000    -10.077000
C          13.177000     -7.820000    -11.984000
C          11.725000     -8.597000    -13.727000
C          11.248000    -10.942000    -12.314000
C           8.431000    -11.313000    -12.169000
C          11.683000     -5.731000    -11.846000
C           6.700000     -9.753000    -12.255000
C          13.253000     -7.872000    -10.518000
C          12.836000     -9.090000     -9.842000
C           7.252000     -9.195000    -13.396000
C           7.572000     -9.295000     -8.337000
C           6.246000     -8.732000    -10.096000
C           6.598000     -7.535000     -9.418000
C           7.771000     -5.418000     -9.716000
C          12.028000     -8.764000     -8.717000
C          12.297000     -6.715000    -12.599000
C           8.328000     -4.917000    -10.912000
C          10.672000    -11.536000    -11.192000
C          10.427000     -5.158000    -12.146000
C          10.684000     -9.452000    -14.113000
C           9.895000     -9.028000     -7.642000
C           6.675000     -6.342000    -11.492000
C          12.653000     -9.036000    -12.668000
C           8.383000     -7.017000     -7.870000
C          10.404000    -10.631000    -13.377000
C          10.257000     -6.651000    -14.082000
C           7.393000    -10.834000    -10.184000
C           8.685000    -11.333000     -9.898000
C           9.192000     -7.452000    -14.486000
C          11.113000     -9.619000     -8.145000
C          12.438000    -10.210000    -10.569000
C           8.798000     -9.863000     -7.964000
C          12.456000     -6.833000     -9.803000
C           8.351000     -5.744000    -13.182000
C          12.367000    -10.185000    -11.958000
C           9.392000     -8.916000    -14.516000
C           9.669000     -7.608000     -7.620000
C           7.068000     -7.813000    -13.343000
C           8.631000     -5.813000     -8.633000
C           6.146000     -8.717000    -11.499000
C           9.738000     -5.638000    -13.242000
C           8.018000     -6.916000    -13.884000
C          11.793000     -5.787000    -10.461000
C          11.827000     -7.377000     -8.676000
C           6.852000     -9.770000     -9.419000
C           7.677000     -5.470000    -12.003000
C           9.028000    -10.781000    -13.331000
C           9.371000    -10.900000     -8.715000
C           7.207000    -10.867000    -11.585000
C          10.660000     -6.740000     -8.124000
C           7.306000     -7.935000     -8.269000
O           1.305000     -0.276000      0.477000
C           0.558000      0.740000      1.163000
H           0.629000      1.636000      0.534000
H           0.984000      0.966000      2.148000
H          -0.467000      0.429000      1.400000
O          -0.385000     -0.922000     -0.827000
C           0.712000     -1.156000     -0.378000
C           1.536000     -2.369000     -0.656000
H           1.136000     -2.881000     -1.539000
H           1.350000     -2.993000      0.227000
C           3.079000     -2.029000     -0.924000
H           3.035000     -1.230000     -1.675000
H           3.623000     -1.624000     -0.062000
C           3.869000     -3.205000     -1.587000
H           3.644000     -4.113000     -1.015000
H           3.506000     -3.450000     -2.592000
C           5.417000     -2.921000     -1.745000
C           5.756000     -1.499000     -2.097000
C           6.092000     -0.544000     -1.096000
H           6.188000     -0.799000     -0.045000
C           6.294000      0.807000     -1.565000
H           6.665000      1.543000     -0.857000
C           6.284000      1.101000     -2.937000
H           6.537000      2.128000     -3.183000
C           5.922000      0.140000     -3.866000
H           5.842000      0.404000     -4.916000
C           5.589000     -1.112000     -3.406000
H           5.296000     -1.880000     -4.116000
C           9.976000     -5.159000     -3.923000
C          10.819000     -3.774000     -2.087000
C          11.901000     -7.353000      0.505000
C           6.332000     -8.401000     -2.455000
C           9.011000     -7.231000      2.446000
C           9.931000     -3.968000     -3.152000
C           6.955000     -9.245000      0.146000
C          12.182000     -6.992000     -1.846000
C           7.935000     -3.648000      0.858000
C           5.681000     -7.826000     -1.328000
C           6.400000     -3.778000     -0.907000
C           6.953000     -4.525000      1.276000
C           5.840000     -7.145000      0.839000
C           7.878000     -9.052000      1.221000
C           8.738000     -3.091000     -1.377000
C          10.321000     -8.794000      1.157000
C           6.173000     -4.125000     -2.304000
C           5.752000     -5.638000     -2.424000
C          10.243000     -7.676000      2.008000
C           9.746000     -9.354000     -2.748000
C          11.255000     -9.079000     -1.039000
C          11.663000     -8.266000     -2.116000
C          11.855000     -5.907000     -2.613000
C           6.569000     -6.230000     -3.399000
C           7.694000     -3.188000     -0.430000
C          11.797000     -4.776000     -1.796000
C           5.938000     -8.266000     -0.043000
C          10.096000     -3.212000     -0.997000
C           7.368000     -5.677000      2.104000
C           8.023000     -8.115000     -3.979000
C          12.318000     -6.521000     -0.512000
C           6.048000     -4.748000      0.176000
C          10.412000     -7.368000     -3.973000
C           6.826000     -6.904000      1.858000
C           9.281000     -3.879000      1.191000
C           9.001000     -9.957000     -0.517000
C           7.666000     -9.767000     -0.925000
C           9.670000     -4.954000      2.008000
C           6.774000     -7.658000     -3.509000
C           5.391000     -6.499000     -1.331000
C           8.405000     -9.183000     -3.157000
C           7.426000     -4.104000     -3.192000
C          11.350000     -4.569000      0.609000
C           5.474000     -6.079000     -0.019000
C           8.694000     -5.856000      2.424000
C           9.053000     -7.194000     -4.305000
C          11.203000     -6.731000      1.631000
C          10.947000     -6.110000     -3.632000
C          11.390000     -8.621000      0.259000
C          10.375000     -3.632000      0.314000
C          10.949000     -5.369000      1.666000
C           8.636000     -3.458000     -2.785000
C           7.579000     -5.310000     -3.859000
C          10.098000     -9.773000     -1.408000
C          11.989000     -5.193000     -0.454000
C           7.812000     -7.936000      2.097000
C           7.354000     -9.332000     -2.246000
C           9.122000     -9.446000      0.776000
C           8.820000     -5.805000     -4.297000
C          10.760000     -8.436000     -3.139000
$end

--------------------------------------------------------------
 ----------------------------------------------------------------
             Standard Nuclear Orientation (Angstroms)
    I     Atom           X                Y                Z
 ----------------------------------------------------------------
    1      O       4.4829645693    -6.6160376830     0.4629049852
    2      C       3.7626148045    -7.7991593097     0.8366233722
    3      H       2.9129144296    -7.8955805920     0.1503965807
    4      H       3.4561397504    -7.8568219315     1.8883614875
    5      H       4.4050267920    -8.6630751608     0.6262398165
    6      O       6.0900356221    -7.0585332129     2.2068417207
    7      C       5.6030899292    -6.3484930561     1.3020766308
    8      C       6.1130766918    -4.9540218817     1.0471891151
    9      H       5.3640551901    -4.2597132526     1.4459388081
   10      H       6.3017674826    -4.7180288130    -0.0083065301
   11      C       7.3925089406    -4.5788638510     1.8017045707
   12      H       7.3439100326    -4.6451199224     2.8959638084
   13      H       8.2487519679    -5.2384710721     1.6132816633
   14      C       7.8603915894    -3.1500755844     1.4784169030
   15      H       8.9052558942    -3.0259682075     1.7896723346
   16      H       8.0687081180    -3.1525331036     0.4014702077
   17      C       7.0044461172    -1.9911416214     2.0210921446
   18      C       6.8829723883    -1.9044561682     3.5604942251
   19      C       7.8793552576    -1.1824092958     4.2350648232
   20      H       8.7920128748    -0.9424710294     3.6971032056
   21      C       7.7923723220    -0.9765574037     5.6497923473
   22      H       8.5657808564    -0.4849573064     6.2320659799
   23      C       6.6633015076    -1.3370931015     6.3559163497
   24      H       6.4874667042    -1.0142401429     7.3776208515
   25      C       5.6519576785    -2.0257002286     5.6468790559
   26      H       4.8291116569    -2.4087962400     6.2421183949
   27      C       5.7995143631    -2.4194558394     4.2777696579
   28      H       5.0278833280    -3.0257357658     3.8125232755
   29      C       2.4814697286     1.1053759594     1.4964937648
   30      C       4.0534166962     2.7233166276     2.4187663522
   31      C       4.5972021492     5.0538884584    -1.4040783115
   32      C       4.3412818594    -1.1199025542    -2.7207750640
   33      C       7.6141767046     3.5835586179    -2.2500338021
   34      C       3.5681840453     1.4179892000     2.3253930083
   35      C       6.0122011602     0.8225836786    -3.9632298622
   36      C       2.5661830925     4.1936016573    -0.4125349634
   37      C       7.8030757422     1.7614910650     1.3043079071
   38      C       5.7472311690    -1.1934998608    -2.5856714912
   39      C       7.1361280006    -0.6196067810     1.2927858470
   40      C       8.3291538993     1.1211164446     0.1540787481
   41      C       7.6014603570     0.0430731802    -2.3018137228
   42      C       6.4977777758     2.1378571145    -3.8791279047
   43      C       5.8232736656     1.2394483665     2.4908377880
   44      C       5.4453690644     4.1157018973    -3.2326583235
   45      C       5.8991204665    -1.3927222502     1.1203305435
   46      C       5.5065213153    -1.7877035831    -0.2228912003
   47      C       6.4911972487     4.3966350730    -2.3693687084
   48      C       2.2212582936     1.7087851062    -2.8683325101
   49      C       3.0816795135     3.8101764709    -2.7536343988
   50      C       2.2716706135     3.6101726606    -1.6045995612
   51      C       2.3602156632     3.5174536925     0.8305564845
   52      C       4.1152565731    -1.5525065640    -0.4068199346
   53      C       7.0085567020     0.7622315301     1.9620380012
   54      C       3.4728657864     3.8009717140     1.6511009590
   55      C       6.5736045760    -0.2216012112    -3.2056698839
   56      C       5.4322087429     2.5969884802     2.4865873752
   57      C       8.5173204005     1.8591917347    -1.0221611228
   58      C       2.4307386089    -0.4173191784    -1.6908599762
   59      C       3.7627293521     4.9344844023    -0.2803653489
   60      C       7.8906568257    -0.2834301530     0.0523183839
   61      C       1.4539216838     1.6030320601    -0.5305761454
   62      C       8.1135963944     1.3377309743    -2.2772398463
   63      C       7.4995039357     3.1437043876     1.2893249551
   64      C       4.2208404666     2.2050667198    -4.1202696864
   65      C       4.6162041808     0.8500468079    -4.0326935934
   66      C       7.6782264837     3.9281588055     0.1527812836
   67      C       3.5144809679    -1.3701363320    -1.6320724681
   68      C       6.3189211115    -1.5009535381    -1.3179318310
   69      C       2.5354593790     0.3427854583    -2.8806467224
   70      C       4.6602678935    -0.7300962040     1.6224520679
   71      C       5.7101762380     4.5752590646     1.1691475980
   72      C       7.4985021622    -0.7775141175    -1.1757666114
   73      C       8.2133322292     3.2821501304    -1.0639892916
   74      C       1.9055765442     0.2386494562    -0.5238681356
   75      C       5.9663366829     4.9908827494    -1.2213355706
   76      C       1.8615373813     2.1717745604     0.7357849450
   77      C       4.2652658299     4.5604106745    -2.6315439756
   78      C       6.2662438117     3.5124022245     1.8760628622
   79      C       6.5411213713     4.7796750216     0.0533423722
   80      C       4.6713715924     0.4756667509     2.3384558421
   81      C       3.5928566862    -0.9370644889     0.7395571458
   82      C       3.0296246659     2.6444692238    -3.4894508887
   83      C       4.3387122620     4.6583204858     0.9914389515
   84      C       7.5869864324     2.3833151830    -3.0171233577
   85      C       3.7188133047    -0.1200712934    -3.4748992900
   86      C       5.3836696167     3.0079342449    -4.0788196595
   87      C       2.4723773852    -0.0332461650     0.7387999038
   88      C       1.6581501194     2.3551020057    -1.7773862926
   89      O     -10.5609620196     5.6975383109     1.4915915418
   90      C     -11.7483966880     6.3254306785     1.9981594869
   91      H     -11.4353546366     6.8699264407     2.8976187905
   92      H     -12.5119037721     5.5899497071     2.2790539031
   93      H     -12.2591503449     6.9406365359     1.2470486729
   94      O      -9.8821462618     7.4685031849     0.3182524680
   95      C      -9.7826355954     6.2849226957     0.5396138310
   96      C      -8.8641036153     5.3344287677    -0.1535595199
   97      H      -8.0953986944     5.9032953669    -0.6895786771
   98      H      -9.5237692313     4.8556735237    -0.8879270650
   99      C      -8.1350426533     4.3227464201     0.8530396761
  100      H      -7.7310833784     4.9854620410     1.6289023637
  101      H      -8.7983015194     3.6104086361     1.3586754718
  102      C      -6.9039475501     3.5946345153     0.2198707404
  103      H      -7.2230058940     3.1981934108    -0.7513703336
  104      H      -6.0930572325     4.2819172642    -0.0483051645
  105      C      -6.2526108785     2.5078035253     1.1666985703
  106      C      -6.2335103562     2.8822165961     2.6228438317
  107      C      -7.2607034946     2.4601195401     3.5137031538
  108      H      -8.0673172510     1.7981102359     3.2137699459
  109      C      -7.1712086508     2.9771051605     4.8593191990
  110      H      -7.8641634664     2.5907572124     5.6017138963
  111      C      -6.0622976378     3.7343637297     5.2664995332
  112      H      -6.0525417594     3.9942452120     6.3208336538
  113      C      -5.1063075182     4.1414842298     4.3511079286
  114      H      -4.2970520916     4.7930757678     4.6659572930
  115      C      -5.2676483746     3.7688798314     3.0376666127
  116      H      -4.5334284751     4.0819021946     2.3009773028
  117      C      -1.9303780159    -0.9276978925     1.3957009502
  118      C      -3.6188664953    -2.0107872595     2.8012948027
  119      C      -4.4121773385    -5.3332436150    -0.2037627129
  120      C      -3.6629193591     0.2372874851    -3.2503117020
  121      C      -7.2595566334    -3.8613620050    -1.5677497644
  122      C      -2.9730191114    -0.8510858862     2.3558973606
  123      C      -5.4476892095    -1.7866737822    -4.0144081419
  124      C      -2.3549150384    -4.3264835311     0.4966578481
  125      C      -7.3428590488    -1.0174873258     1.3344643071
  126      C      -5.0688213495     0.4285790034    -3.1435308596
  127      C      -6.3534154488     1.0210370413     0.7396788274
  128      C      -7.8283494454    -0.7152729647     0.0770293964
  129      C      -7.1028415719    -0.4945209710    -2.7012875190
  130      C      -6.0884870230    -2.9798929367    -3.5557043034
  131      C      -5.2435120731    -0.4232430668     2.4252892409
  132      C      -5.1665204538    -4.8474484504    -2.2514332240
  133      C      -5.1172918025     1.7485971114     0.4823819647
  134      C      -4.7285310369     1.6332331059    -1.0395793401
  135      C      -6.2702988804    -4.8066843243    -1.3795269957
  136      C      -1.8091608235    -2.7227412900    -2.5785506263
  137      C      -2.8024351461    -4.6643470482    -1.8595511828
  138      C      -1.9432928030    -4.2099797562    -0.8383818539
  139      C      -2.1304468683    -3.3289704723     1.4060668529
  140      C      -3.3864864878     1.2293246992    -1.1055522671
  141      C      -6.4454217799    -0.0558027182     1.7798787925
  142      C      -3.2006219768    -3.2839543594     2.3020092545
  143      C      -5.9633639818    -0.5378914742    -3.5637716181
  144      C      -5.0163529515    -1.7478896772     2.8690403998
  145      C      -8.0524520451    -1.8359464026    -0.8604043721
  146      C      -1.7628009081    -0.3187331610    -2.0908963693
  147      C      -3.6076226545    -4.9081227446     0.8317883511
  148      C      -7.1499066054     0.4649482179    -0.3978887785
  149      C      -1.0670681703    -2.0092976452    -0.3811263023
  150      C      -7.6845422607    -1.6961289755    -2.1661235141
  151      C      -7.0467974046    -2.3475339574     1.6798473709
  152      C      -3.8690781065    -3.3778688488    -3.6846897083
  153      C      -4.0832376011    -2.0352115594    -4.0537372854
  154      C      -7.2940179594    -3.4156966370     0.8010154829
  155      C      -2.7901293861     0.6293434749    -2.2793025548
  156      C      -5.5693808361     1.1167794265    -2.0848248674
  157      C      -2.0191565334    -1.3811929798    -2.9670772450
  158      C      -3.8639521963     1.1575410378     1.1447916184
  159      C      -5.5366190913    -3.9882707307     2.0304601241
  160      C      -6.8082529761     0.5712892462    -1.8159953976
  161      C      -7.7680732487    -3.1259106098    -0.4759072403
  162      C      -1.3522072960    -0.6885343733    -0.7831972644
  163      C      -5.8491907167    -5.0873032205    -0.0754277090
  164      C      -1.5298734567    -2.1778394406     0.9389020800
  165      C      -4.0202215210    -5.2325583785    -1.5325569483
  166      C      -5.9310404096    -2.7377444987     2.4734442847
  167      C      -6.3794108536    -4.4344447411     1.0261291040
  168      C      -3.9436692762     0.2011300135     2.2059175015
  169      C      -2.8661610729     0.9388435684     0.2070718890
  170      C      -2.7213452320    -3.7853086798    -2.9445221375
  171      C      -4.1768460231    -4.2167487815     1.8677303377
  172      C      -7.2089042868    -2.9613909312    -2.6830584239
  173      C      -3.1769572189    -1.0087054586    -3.6580719043
  174      C      -5.1035224455    -3.9143196842    -3.3159368438
  175      C      -1.8586870065    -0.0307898679     0.3545744475
  176      C      -1.3470263293    -3.0498021462    -1.2734590948
 ----------------------------------------------------------------
 Molecular Point Group                 C1    NOp =  1
 Largest Abelian Subgroup              C1    NOp =  1
 Nuclear Repulsion Energy = 33808.2252708842 hartrees
 There are      462 alpha and      462 beta electrons
 Requested basis set is 6-31G(d,p)
 There are 676 shells and 2360 basis functions

 Total QAlloc Memory Limit  20000 MB
 Mega-Array Size      4888 MB
 MEM_STATIC part      5000 MB
 A cutoff of  1.0D-08 yielded  36144 shell pairs
 There are    511568 function pairs
 
 -------------------------------------------------------
 OpenMP Integral Computing Module                       
 Release: version 1.0, May 2013, Q-Chem Inc. Pittsburgh 
 -------------------------------------------------------
 Integral Job Info:
 Integral job number is                      11
 Integral operator is                         1
 short-range coefficients                     0
 long-range coefficients              100000000
 Omega coefficients                           0
 if combine SR and LR in K                    0
 Integral screening is                        0
 Integral computing path is                   2
 max size of driver memory is            800000
 size of driver memory is                593474
 size of scratch memory is              2260544
 max col of scratch BK array               1296
 max len of scratch array in speh3          155
 max len of scratch index in speh4           18
 max int batch size is                      520
 min int batch size is                       52
 fixed nKL is                                52
 max L of basis functions is                  2
 order of int derivative is                   0
 number of shells is                        676
 number of basis is                        2360
 number of cartesian basis is              2360
 number of contracted shell pairs         36144
 number of primitive shell pairs         110703
 maxK2 (contraction) of shell pair           36
 max number of K2 of shell pair               1
 max number of CS2 of shell pair           6964
 max number of PS2 of shell pair          33780
 mem total for path MDJ                 1454744
 -------------------------------------------------------
 Smallest overlap matrix eigenvalue = 2.63E-04

 Scale SEOQF with 1.000000e-02/1.000000e-02/1.000000e-02

 Standard Electronic Orientation quadrupole field applied
 Nucleus-field energy     =     0.0000001230 hartrees
 Guess from superposition of atomic densities
 Warning:  Energy on first SCF cycle will be non-variational
 A restricted hybrid HF-DFT SCF calculation will be
 performed using Pulay DIIS extrapolation
 Exchange:     0.2000 Hartree-Fock + 0.0800 Slater + 0.7200 B88
 Correlation:  0.1900 VWN1RPA + 0.8100 LYP
 Using SG-1 standard quadrature grid
 SCF converges when DIIS error is below 1.0E-05
 using 16 threads for integral computing 
 -------------------------------------------------------
 OpenMP BLAS3 based DFT computing Module                
 Release: version 1.0, May 2013, Q-Chem Inc. Pittsburgh 
 -------------------------------------------------------
 ---------------------------------------
  Cycle       Energy         DIIS Error
 ---------------------------------------
    1   -5857.6543370847      1.82E-02
    2   -5803.1409072546      1.29E-03
    3   -5802.2656547956      1.82E-03
    4   -5803.9779147345      6.56E-04
    5   -5804.2217640521      2.91E-04
    6   -5804.2765890796      1.30E-04
    7   -5804.2879530364      4.45E-05
    8   -5804.2888733683      2.55E-05
    9   -5804.2893322194      8.85E-06 Convergence criterion met
 ---------------------------------------
 SCF time:  CPU 7906.71 s  wall 817.60 s
 SCF   energy in the final basis set = -5804.2893322194
 Total energy in the final basis set = -5804.2893322194
 
 --------------------------------------------------------------
 
                    Orbital Energies (a.u.)
 --------------------------------------------------------------
 
 Alpha MOs
 -- Occupied --
-19.198 -19.182 -19.151 -19.128 -10.329 -10.312 -10.249 -10.247
-10.244 -10.243 -10.243 -10.243 -10.238 -10.236 -10.235 -10.234
-10.233 -10.230 -10.229 -10.228 -10.227 -10.226 -10.226 -10.225
-10.224 -10.224 -10.223 -10.223 -10.222 -10.221 -10.221 -10.221
-10.221 -10.221 -10.220 -10.220 -10.220 -10.220 -10.220 -10.220
-10.219 -10.219 -10.219 -10.219 -10.218 -10.218 -10.218 -10.217
-10.217 -10.217 -10.217 -10.217 -10.217 -10.217 -10.217 -10.217
-10.217 -10.217 -10.217 -10.217 -10.216 -10.216 -10.216 -10.216
-10.216 -10.216 -10.216 -10.215 -10.215 -10.215 -10.215 -10.215
-10.215 -10.215 -10.215 -10.215 -10.215 -10.215 -10.215 -10.214
-10.214 -10.214 -10.214 -10.214 -10.214 -10.213 -10.213 -10.213
-10.213 -10.213 -10.213 -10.213 -10.213 -10.213 -10.213 -10.212
-10.212 -10.212 -10.212 -10.212 -10.212 -10.212 -10.212 -10.212
-10.212 -10.212 -10.211 -10.211 -10.211 -10.211 -10.211 -10.211
-10.210 -10.210 -10.210 -10.210 -10.210 -10.210 -10.210 -10.210
-10.209 -10.209 -10.209 -10.209 -10.209 -10.209 -10.209 -10.208
-10.208 -10.208 -10.208 -10.208 -10.207 -10.207 -10.207 -10.207
-10.207 -10.205 -10.204 -10.204 -10.203 -10.203 -10.202 -10.200
-10.200 -10.199 -10.196 -10.193  -1.092  -1.078  -1.010  -1.005
 -0.982  -0.982  -0.967  -0.964  -0.962  -0.961  -0.959  -0.957
 -0.935  -0.933  -0.928  -0.925  -0.924  -0.923  -0.921  -0.920
 -0.918  -0.917  -0.898  -0.896  -0.890  -0.887  -0.883  -0.881
 -0.873  -0.870  -0.857  -0.853  -0.841  -0.841  -0.839  -0.836
 -0.833  -0.832  -0.822  -0.822  -0.807  -0.801  -0.796  -0.796
 -0.796  -0.795  -0.794  -0.792  -0.790  -0.790  -0.782  -0.779
 -0.771  -0.770  -0.768  -0.767  -0.766  -0.766  -0.765  -0.764
 -0.753  -0.748  -0.744  -0.743  -0.734  -0.733  -0.719  -0.716
 -0.713  -0.712  -0.711  -0.710  -0.709  -0.709  -0.708  -0.707
 -0.706  -0.706  -0.705  -0.703  -0.702  -0.701  -0.672  -0.670
 -0.660  -0.658  -0.656  -0.655  -0.649  -0.647  -0.632  -0.629
 -0.626  -0.626  -0.625  -0.624  -0.623  -0.620  -0.617  -0.616
 -0.615  -0.614  -0.614  -0.614  -0.613  -0.610  -0.609  -0.609
 -0.607  -0.607  -0.600  -0.600  -0.568  -0.566  -0.563  -0.563
 -0.561  -0.558  -0.557  -0.557  -0.555  -0.554  -0.554  -0.553
 -0.538  -0.537  -0.535  -0.530  -0.527  -0.527  -0.524  -0.523
 -0.522  -0.522  -0.521  -0.518  -0.516  -0.515  -0.513  -0.510
 -0.507  -0.506  -0.506  -0.495  -0.494  -0.489  -0.487  -0.487
 -0.485  -0.484  -0.482  -0.480  -0.479  -0.477  -0.473  -0.473
 -0.471  -0.471  -0.470  -0.469  -0.468  -0.466  -0.466  -0.465
 -0.464  -0.463  -0.463  -0.462  -0.462  -0.461  -0.461  -0.458
 -0.457  -0.456  -0.455  -0.453  -0.450  -0.447  -0.445  -0.445
 -0.442  -0.442  -0.440  -0.439  -0.438  -0.437  -0.432  -0.432
 -0.430  -0.429  -0.428  -0.426  -0.426  -0.425  -0.424  -0.423
 -0.422  -0.422  -0.421  -0.420  -0.419  -0.418  -0.418  -0.417
 -0.416  -0.416  -0.415  -0.415  -0.414  -0.413  -0.412  -0.411
 -0.411  -0.409  -0.409  -0.408  -0.403  -0.402  -0.402  -0.398
 -0.394  -0.394  -0.393  -0.392  -0.387  -0.385  -0.383  -0.382
 -0.379  -0.377  -0.376  -0.372  -0.372  -0.369  -0.366  -0.365
 -0.364  -0.363  -0.362  -0.362  -0.361  -0.360  -0.359  -0.358
 -0.358  -0.356  -0.355  -0.355  -0.354  -0.354  -0.352  -0.352
 -0.350  -0.350  -0.349  -0.347  -0.346  -0.344  -0.343  -0.342
 -0.341  -0.341  -0.340  -0.339  -0.338  -0.337  -0.335  -0.334
 -0.333  -0.331  -0.330  -0.329  -0.328  -0.326  -0.326  -0.324
 -0.308  -0.305  -0.301  -0.293  -0.290  -0.288  -0.278  -0.270
 -0.269  -0.269  -0.268  -0.266  -0.266  -0.264  -0.264  -0.263
 -0.261  -0.261  -0.260  -0.260  -0.259  -0.258  -0.255  -0.254
 -0.253  -0.251  -0.246  -0.244  -0.225  -0.222  -0.213  -0.211
 -0.209  -0.208  -0.208  -0.206  -0.198  -0.195
 -- Virtual --
 -0.126  -0.123  -0.120  -0.116  -0.108  -0.107  -0.077  -0.075
 -0.075  -0.073  -0.062  -0.059  -0.055  -0.053  -0.028  -0.022
 -0.022  -0.020  -0.019  -0.018  -0.017  -0.017  -0.014  -0.014
 -0.013  -0.012  -0.012  -0.011  -0.011  -0.007  -0.005   0.003
  0.006   0.013   0.033   0.035   0.040   0.043   0.045   0.046
  0.047   0.049   0.053   0.057   0.060   0.062   0.063   0.065
  0.066   0.068   0.071   0.076   0.081   0.082   0.087   0.090
  0.096   0.096   0.097   0.099   0.100   0.101   0.103   0.106
  0.108   0.110   0.111   0.112   0.116   0.116   0.117   0.119
  0.119   0.121   0.122   0.125   0.125   0.126   0.130   0.131
  0.136   0.141   0.142   0.144   0.147   0.150   0.151   0.153
  0.155   0.155   0.157   0.160   0.164   0.165   0.165   0.168
  0.171   0.173   0.173   0.174   0.175   0.176   0.177   0.180
  0.180   0.182   0.184   0.186   0.187   0.188   0.189   0.190
  0.192   0.193   0.195   0.196   0.200   0.201   0.202   0.203
  0.206   0.209   0.210   0.212   0.214   0.215   0.216   0.218
  0.219   0.220   0.221   0.222   0.223   0.224   0.225   0.227
  0.228   0.229   0.231   0.232   0.233   0.235   0.235   0.236
  0.236   0.241   0.241   0.243   0.245   0.246   0.249   0.254
  0.255   0.259   0.265   0.274   0.275   0.275   0.276   0.279
  0.280   0.283   0.285   0.286   0.287   0.291   0.292   0.304
  0.305   0.306   0.307   0.308   0.311   0.313   0.314   0.315
  0.318   0.319   0.324   0.325   0.326   0.326   0.329   0.333
  0.334   0.334   0.340   0.341   0.341   0.342   0.346   0.347
  0.349   0.350   0.358   0.361   0.365   0.369   0.378   0.388
  0.394   0.395   0.397   0.398   0.401   0.402   0.403   0.405
  0.406   0.409   0.410   0.411   0.413   0.415   0.417   0.420
  0.428   0.429   0.433   0.436   0.439   0.442   0.443   0.447
  0.449   0.449   0.451   0.456   0.457   0.459   0.463   0.466
  0.467   0.468   0.471   0.472   0.473   0.474   0.474   0.475
  0.477   0.478   0.480   0.483   0.483   0.484   0.484   0.485
  0.486   0.487   0.488   0.489   0.492   0.492   0.493   0.496
  0.497   0.498   0.499   0.500   0.501   0.502   0.503   0.504
  0.505   0.506   0.507   0.507   0.511   0.511   0.511   0.512
  0.513   0.514   0.514   0.515   0.515   0.517   0.518   0.518
  0.520   0.520   0.522   0.522   0.522   0.523   0.524   0.525
  0.525   0.526   0.527   0.527   0.528   0.529   0.529   0.530
  0.531   0.531   0.532   0.534   0.535   0.536   0.537   0.537
  0.539   0.539   0.540   0.540   0.541   0.542   0.543   0.544
  0.545   0.545   0.546   0.547   0.548   0.548   0.549   0.550
  0.551   0.551   0.552   0.553   0.554   0.554   0.555   0.555
  0.556   0.556   0.558   0.559   0.561   0.561   0.561   0.562
  0.562   0.563   0.563   0.565   0.566   0.567   0.567   0.568
  0.569   0.571   0.571   0.572   0.574   0.574   0.575   0.576
  0.577   0.578   0.578   0.580   0.580   0.581   0.582   0.583
  0.584   0.585   0.586   0.586   0.587   0.588   0.588   0.589
  0.590   0.591   0.592   0.593   0.594   0.595   0.596   0.597
  0.597   0.598   0.599   0.599   0.601   0.602   0.603   0.605
  0.607   0.608   0.609   0.609   0.609   0.612   0.613   0.614
  0.614   0.615   0.617   0.617   0.618   0.620   0.621   0.621
  0.624   0.626   0.628   0.628   0.629   0.629   0.630   0.632
  0.632   0.632   0.633   0.634   0.634   0.635   0.637   0.637
  0.638   0.639   0.641   0.642   0.642   0.642   0.645   0.647
  0.648   0.649   0.650   0.651   0.652   0.653   0.655   0.656
  0.658   0.658   0.659   0.659   0.660   0.661   0.662   0.663
  0.664   0.665   0.665   0.666   0.666   0.667   0.667   0.668
  0.669   0.669   0.670   0.670   0.672   0.672   0.673   0.674
  0.674   0.677   0.678   0.679   0.682   0.683   0.684   0.685
  0.686   0.688   0.688   0.689   0.690   0.691   0.693   0.693
  0.694   0.695   0.696   0.697   0.698   0.698   0.699   0.700
  0.701   0.703   0.705   0.707   0.708   0.709   0.712   0.713
  0.714   0.716   0.717   0.718   0.719   0.720   0.721   0.722
  0.723   0.724   0.725   0.727   0.727   0.728   0.729   0.731
  0.731   0.733   0.734   0.737   0.738   0.739   0.741   0.742
  0.744   0.745   0.745   0.746   0.747   0.749   0.752   0.753
  0.755   0.756   0.756   0.757   0.759   0.762   0.763   0.765
  0.766   0.768   0.770   0.770   0.771   0.772   0.773   0.773
  0.775   0.776   0.778   0.779   0.780   0.781   0.782   0.784
  0.785   0.787   0.787   0.789   0.790   0.792   0.793   0.794
  0.796   0.798   0.798   0.799   0.799   0.800   0.801   0.803
  0.804   0.805   0.806   0.806   0.807   0.809   0.810   0.810
  0.810   0.811   0.812   0.814   0.814   0.815   0.815   0.816
  0.817   0.817   0.818   0.819   0.820   0.820   0.821   0.821
  0.822   0.824   0.824   0.825   0.827   0.828   0.829   0.830
  0.831   0.832   0.834   0.834   0.836   0.837   0.837   0.840
  0.844   0.847   0.849   0.852   0.852   0.857   0.858   0.862
  0.866   0.867   0.869   0.871   0.874   0.876   0.879   0.883
  0.887   0.889   0.890   0.894   0.895   0.897   0.898   0.903
  0.906   0.910   0.910   0.913   0.915   0.918   0.920   0.921
  0.922   0.924   0.924   0.927   0.928   0.929   0.930   0.932
  0.936   0.937   0.939   0.940   0.941   0.943   0.945   0.946
  0.947   0.950   0.951   0.953   0.955   0.959   0.960   0.961
  0.966   0.966   0.970   0.972   0.975   0.978   0.980   0.983
  0.985   0.987   0.989   0.991   0.993   0.997   1.000   1.002
  1.003   1.006   1.008   1.010   1.012   1.012   1.015   1.015
  1.018   1.018   1.020   1.020   1.022   1.024   1.027   1.028
  1.029   1.030   1.031   1.032   1.034   1.034   1.036   1.039
  1.041   1.042   1.045   1.045   1.045   1.048   1.052   1.053
  1.055   1.058   1.061   1.062   1.063   1.064   1.066   1.069
  1.069   1.070   1.072   1.073   1.075   1.076   1.077   1.080
  1.081   1.083   1.084   1.085   1.087   1.089   1.089   1.090
  1.091   1.093   1.097   1.098   1.100   1.100   1.103   1.105
  1.106   1.107   1.110   1.112   1.114   1.118   1.119   1.121
  1.121   1.125   1.126   1.130   1.130   1.134   1.137   1.139
  1.142   1.143   1.146   1.148   1.149   1.151   1.154   1.156
  1.157   1.159   1.160   1.161   1.164   1.166   1.168   1.169
  1.170   1.171   1.172   1.175   1.175   1.177   1.179   1.179
  1.182   1.182   1.184   1.187   1.188   1.190   1.191   1.192
  1.193   1.194   1.197   1.201   1.203   1.206   1.207   1.210
  1.214   1.216   1.216   1.223   1.225   1.229   1.233   1.236
  1.237   1.239   1.241   1.244   1.249   1.252   1.253   1.255
  1.257   1.260   1.261   1.263   1.265   1.266   1.269   1.270
  1.271   1.274   1.276   1.277   1.279   1.280   1.281   1.282
  1.283   1.285   1.288   1.290   1.291   1.297   1.298   1.300
  1.303   1.304   1.306   1.310   1.318   1.319   1.319   1.324
  1.328   1.331   1.333   1.334   1.336   1.339   1.341   1.343
  1.346   1.348   1.352   1.352   1.356   1.356   1.359   1.361
  1.364   1.367   1.368   1.371   1.372   1.375   1.378   1.380
  1.383   1.384   1.385   1.387   1.390   1.394   1.397   1.399
  1.401   1.402   1.406   1.409   1.413   1.418   1.419   1.423
  1.425   1.430   1.433   1.435   1.438   1.443   1.445   1.445
  1.448   1.449   1.451   1.452   1.455   1.457   1.457   1.458
  1.461   1.463   1.463   1.464   1.467   1.469   1.471   1.473
  1.475   1.476   1.479   1.480   1.486   1.487   1.489   1.491
  1.492   1.496   1.498   1.498   1.501   1.502   1.505   1.507
  1.510   1.515   1.519   1.521   1.523   1.524   1.527   1.531
  1.535   1.538   1.540   1.541   1.543   1.544   1.545   1.551
  1.552   1.555   1.557   1.560   1.562   1.563   1.566   1.569
  1.570   1.573   1.574   1.576   1.579   1.580   1.582   1.586
  1.590   1.592   1.595   1.596   1.601   1.606   1.607   1.609
  1.620   1.621   1.623   1.627   1.628   1.633   1.638   1.641
  1.643   1.644   1.645   1.648   1.653   1.657   1.662   1.662
  1.664   1.670   1.678   1.679   1.684   1.686   1.690   1.693
  1.695   1.697   1.699   1.701   1.704   1.706   1.709   1.710
  1.712   1.714   1.716   1.718   1.722   1.722   1.724   1.726
  1.729   1.732   1.734   1.735   1.738   1.738   1.740   1.741
  1.744   1.744   1.747   1.748   1.749   1.752   1.753   1.754
  1.755   1.757   1.758   1.759   1.762   1.763   1.764   1.765
  1.767   1.767   1.769   1.770   1.771   1.772   1.774   1.775
  1.775   1.777   1.778   1.779   1.780   1.781   1.781   1.784
  1.785   1.786   1.788   1.789   1.789   1.790   1.791   1.794
  1.794   1.796   1.797   1.798   1.800   1.801   1.803   1.805
  1.805   1.807   1.808   1.809   1.810   1.814   1.815   1.817
  1.819   1.821   1.826   1.828   1.829   1.832   1.833   1.834
  1.835   1.837   1.842   1.844   1.845   1.847   1.850   1.850
  1.853   1.855   1.857   1.859   1.860   1.861   1.863   1.865
  1.865   1.866   1.866   1.871   1.873   1.874   1.875   1.875
  1.879   1.880   1.881   1.884   1.890   1.893   1.895   1.897
  1.899   1.900   1.903   1.904   1.907   1.909   1.912   1.914
  1.917   1.920   1.923   1.925   1.926   1.928   1.930   1.933
  1.933   1.935   1.935   1.939   1.940   1.945   1.946   1.947
  1.949   1.951   1.952   1.953   1.954   1.956   1.960   1.962
  1.966   1.967   1.972   1.973   1.973   1.976   1.977   1.981
  1.982   1.982   1.985   1.985   1.989   1.989   1.990   1.994
  1.994   1.996   1.996   1.997   1.999   2.001   2.003   2.004
  2.005   2.007   2.008   2.008   2.010   2.011   2.011   2.013
  2.013   2.014   2.015   2.018   2.018   2.019   2.020   2.021
  2.021   2.022   2.023   2.024   2.028   2.029   2.029   2.030
  2.031   2.035   2.036   2.036   2.037   2.038   2.039   2.040
  2.042   2.042   2.042   2.045   2.045   2.047   2.049   2.050
  2.051   2.052   2.053   2.054   2.055   2.059   2.060   2.060
  2.062   2.062   2.063   2.064   2.064   2.067   2.069   2.071
  2.071   2.072   2.073   2.075   2.076   2.078   2.079   2.079
  2.080   2.083   2.085   2.090   2.092   2.093   2.094   2.095
  2.098   2.100   2.102   2.103   2.105   2.106   2.110   2.112
  2.114   2.115   2.118   2.119   2.121   2.126   2.127   2.130
  2.136   2.137   2.140   2.141   2.143   2.150   2.151   2.155
  2.161   2.166   2.168   2.180   2.180   2.183   2.186   2.191
  2.194   2.196   2.200   2.204   2.205   2.208   2.214   2.218
  2.219   2.221   2.222   2.228   2.232   2.232   2.237   2.239
  2.241   2.242   2.245   2.247   2.249   2.252   2.253   2.255
  2.258   2.263   2.264   2.267   2.269   2.270   2.273   2.275
  2.278   2.283   2.284   2.285   2.287   2.289   2.290   2.293
  2.295   2.295   2.300   2.302   2.308   2.309   2.312   2.314
  2.315   2.320   2.322   2.324   2.324   2.326   2.333   2.336
  2.337   2.340   2.342   2.344   2.344   2.346   2.348   2.353
  2.355   2.356   2.357   2.358   2.360   2.361   2.363   2.366
  2.369   2.370   2.373   2.374   2.377   2.377   2.378   2.381
  2.382   2.383   2.385   2.385   2.388   2.389   2.391   2.392
  2.394   2.397   2.398   2.399   2.399   2.401   2.402   2.405
  2.406   2.406   2.407   2.409   2.412   2.413   2.414   2.418
  2.420   2.422   2.424   2.430   2.431   2.434   2.436   2.439
  2.442   2.443   2.448   2.449   2.452   2.454   2.454   2.457
  2.461   2.461   2.464   2.466   2.468   2.470   2.472   2.476
  2.477   2.479   2.480   2.483   2.485   2.487   2.488   2.490
  2.491   2.493   2.493   2.494   2.495   2.498   2.500   2.500
  2.505   2.505   2.506   2.508   2.508   2.511   2.513   2.514
  2.517   2.519   2.522   2.522   2.525   2.527   2.528   2.531
  2.532   2.539   2.543   2.546   2.547   2.548   2.552   2.558
  2.559   2.561   2.564   2.565   2.570   2.571   2.574   2.576
  2.580   2.582   2.588   2.589   2.593   2.594   2.594   2.597
  2.601   2.603   2.604   2.605   2.608   2.609   2.610   2.612
  2.614   2.615   2.617   2.619   2.622   2.622   2.623   2.626
  2.627   2.629   2.631   2.632   2.633   2.637   2.639   2.640
  2.642   2.643   2.645   2.647   2.647   2.649   2.653   2.654
  2.655   2.656   2.660   2.661   2.663   2.665   2.666   2.667
  2.670   2.671   2.672   2.674   2.676   2.678   2.681   2.682
  2.684   2.687   2.689   2.693   2.694   2.696   2.699   2.700
  2.701   2.706   2.707   2.711   2.713   2.716   2.720   2.722
  2.723   2.724   2.725   2.729   2.731   2.733   2.734   2.736
  2.738   2.741   2.745   2.747   2.749   2.752   2.755   2.755
  2.757   2.758   2.759   2.760   2.762   2.765   2.765   2.769
  2.771   2.773   2.774   2.777   2.784   2.785   2.786   2.793
  2.793   2.797   2.800   2.805   2.808   2.809   2.814   2.814
  2.816   2.823   2.828   2.829   2.829   2.832   2.833   2.837
  2.839   2.840   2.841   2.846   2.847   2.849   2.849   2.852
  2.853   2.859   2.860   2.861   2.863   2.865   2.866   2.870
  2.871   2.873   2.877   2.878   2.879   2.884   2.885   2.886
  2.887   2.888   2.890   2.891   2.893   2.894   2.896   2.900
  2.901   2.901   2.902   2.905   2.906   2.907   2.909   2.909
  2.910   2.913   2.916   2.920   2.921   2.922   2.925   2.925
  2.929   2.931   2.931   2.934   2.937   2.938   2.941   2.946
  2.949   2.953   2.956   2.958   2.959   2.962   2.966   2.968
  2.969   2.974   2.981   2.982   2.986   2.990   2.992   2.994
  2.997   3.000   3.002   3.003   3.005   3.008   3.012   3.013
  3.018   3.019   3.020   3.023   3.025   3.027   3.028   3.035
  3.037   3.040   3.045   3.046   3.049   3.054   3.057   3.059
  3.061   3.068   3.070   3.072   3.074   3.080   3.090   3.091
  3.094   3.116   3.119   3.120   3.123   3.133   3.136   3.142
  3.150   3.151   3.155   3.158   3.165   3.166   3.170   3.183
  3.186   3.192   3.193   3.202   3.208   3.226   3.228   3.228
  3.233   3.243   3.245   3.250   3.254   3.265   3.270   3.271
  3.278   3.288   3.297   3.300   3.306   3.313   3.315   3.316
  3.326   3.334   3.338   3.346   3.352   3.357   3.376   3.385
  3.393   3.400   3.408   3.409   3.410   3.412   3.419   3.422
  3.438   3.443   3.453   3.458   3.466   3.469   3.476   3.482
  3.489   3.495   3.499   3.500   3.507   3.510   3.530   3.541
  3.543   3.547   3.548   3.573   3.575   3.580   3.588   3.591
  3.604   3.616   3.675   3.685   3.832   3.873   3.980   4.008
  4.061   4.063   4.068   4.074   4.078   4.082   4.093   4.095
  4.095   4.098   4.099   4.103   4.106   4.111   4.113   4.116
  4.119   4.121   4.125   4.129   4.131   4.132   4.136   4.139
  4.145   4.148   4.149   4.153   4.158   4.162   4.170   4.171
  4.177   4.180   4.187   4.193   4.197   4.201   4.226   4.237
  4.238   4.241   4.243   4.245   4.246   4.252   4.258   4.261
  4.264   4.266   4.269   4.274   4.277   4.280   4.284   4.286
  4.296   4.302   4.309   4.311   4.368   4.377   4.383   4.385
  4.389   4.390   4.394   4.397   4.404   4.406   4.408   4.410
  4.414   4.417   4.419   4.423   4.427   4.428   4.452   4.459
  4.464   4.482   4.487   4.503   4.526   4.530   4.541   4.544
  4.549   4.550   4.580   4.605   4.617   4.619   4.620   4.630
  4.635   4.638   4.659   4.678   4.681   4.689   4.693   4.694
  4.699   4.701   4.704   4.706   4.732   4.763   4.778   4.785
  4.814   4.844   4.849   4.854   4.860   4.865   4.873   4.881
  4.891   4.903   4.944   4.950   4.963   4.966   4.970   4.975
  4.980   4.985   4.989   5.000   5.152   5.161   5.164   5.169
  5.178   5.182   5.203   5.211   5.307   5.329   5.331   5.335
  5.349   5.363
 --------------------------------------------------------------
 
          Ground-State Mulliken Net Atomic Charges

     Atom                 Charge (a.u.)
  ----------------------------------------
      1 O                    -0.477745
      2 C                    -0.085566
      3 H                     0.122289
      4 H                     0.129415
      5 H                     0.125931
      6 O                    -0.469253
      7 C                     0.612520
      8 C                    -0.254271
      9 H                     0.142547
     10 H                     0.134169
     11 C                    -0.180416
     12 H                     0.120844
     13 H                     0.109168
     14 C                    -0.210965
     15 H                     0.107593
     16 H                     0.104816
     17 C                     0.024751
     18 C                     0.078363
     19 C                    -0.103143
     20 H                     0.096930
     21 C                    -0.093412
     22 H                     0.090322
     23 C                    -0.071129
     24 H                     0.097928
     25 C                    -0.101842
     26 H                     0.090015
     27 C                    -0.103139
     28 H                     0.095341
     29 C                     0.003227
     30 C                     0.006935
     31 C                     0.009066
     32 C                     0.003430
     33 C                    -0.000654
     34 C                    -0.017513
     35 C                     0.003137
     36 C                    -0.001682
     37 C                     0.004968
     38 C                     0.005964
     39 C                    -0.088909
     40 C                    -0.002972
     41 C                     0.001877
     42 C                    -0.002093
     43 C                     0.003131
     44 C                     0.021492
     45 C                    -0.082642
     46 C                     0.039174
     47 C                     0.023798
     48 C                     0.040421
     49 C                    -0.005237
     50 C                     0.044308
     51 C                    -0.026080
     52 C                     0.019539
     53 C                     0.032697
     54 C                    -0.004120
     55 C                    -0.025435
     56 C                     0.012230
     57 C                    -0.024550
     58 C                    -0.005096
     59 C                    -0.012710
     60 C                     0.022355
     61 C                    -0.031631
     62 C                     0.014249
     63 C                     0.011525
     64 C                    -0.005686
     65 C                     0.018485
     66 C                    -0.017303
     67 C                    -0.028568
     68 C                    -0.017932
     69 C                     0.005059
     70 C                     0.029238
     71 C                    -0.004298
     72 C                     0.015938
     73 C                    -0.014714
     74 C                     0.003246
     75 C                     0.000701
     76 C                     0.001864
     77 C                    -0.011418
     78 C                    -0.007402
     79 C                    -0.008904
     80 C                     0.000605
     81 C                     0.007277
     82 C                    -0.008042
     83 C                     0.021612
     84 C                    -0.003396
     85 C                    -0.011479
     86 C                    -0.039261
     87 C                    -0.002908
     88 C                    -0.044923
     89 O                    -0.469059
     90 C                    -0.077564
     91 H                     0.126594
     92 H                     0.118516
     93 H                     0.130284
     94 O                    -0.466061
     95 C                     0.578056
     96 C                    -0.255297
     97 H                     0.134734
     98 H                     0.135510
     99 C                    -0.189912
    100 H                     0.123197
    101 H                     0.121087
    102 C                    -0.183882
    103 H                     0.110478
    104 H                     0.110190
    105 C                    -0.013030
    106 C                     0.086222
    107 C                    -0.103918
    108 H                     0.102008
    109 C                    -0.101024
    110 H                     0.091645
    111 C                    -0.078159
    112 H                     0.091328
    113 C                    -0.083604
    114 H                     0.096305
    115 C                    -0.095706
    116 H                     0.091052
    117 C                    -0.000225
    118 C                    -0.012588
    119 C                    -0.021967
    120 C                    -0.000985
    121 C                    -0.007372
    122 C                    -0.003951
    123 C                    -0.013804
    124 C                    -0.014642
    125 C                     0.003412
    126 C                     0.027576
    127 C                    -0.081879
    128 C                    -0.028803
    129 C                    -0.018907
    130 C                    -0.000194
    131 C                     0.027522
    132 C                     0.002430
    133 C                    -0.092781
    134 C                     0.035576
    135 C                     0.003210
    136 C                     0.004997
    137 C                     0.000725
    138 C                     0.022350
    139 C                     0.016875
    140 C                    -0.007161
    141 C                     0.021104
    142 C                    -0.023975
    143 C                    -0.006616
    144 C                    -0.015632
    145 C                     0.008064
    146 C                    -0.018616
    147 C                    -0.010656
    148 C                     0.050336
    149 C                    -0.018934
    150 C                     0.006391
    151 C                     0.005653
    152 C                    -0.015924
    153 C                     0.009467
    154 C                    -0.003798
    155 C                    -0.001853
    156 C                     0.007651
    157 C                     0.007314
    158 C                     0.023857
    159 C                     0.003167
    160 C                    -0.037979
    161 C                     0.013318
    162 C                     0.019221
    163 C                     0.008050
    164 C                     0.012319
    165 C                     0.010646
    166 C                    -0.004347
    167 C                    -0.011017
    168 C                    -0.020455
    169 C                     0.023792
    170 C                    -0.018610
    171 C                     0.035432
    172 C                    -0.032534
    173 C                    -0.004916
    174 C                     0.020782
    175 C                    -0.001820
    176 C                    -0.010332
  ----------------------------------------
  Sum of atomic charges =     0.000000

 -----------------------------------------------------------------
                    Cartesian Multipole Moments
 -----------------------------------------------------------------
    Charge (ESU x 10^10)
                 0.0000
    Dipole Moment (Debye)
         X      -0.6660      Y      -0.7256      Z       3.3755
       Tot       3.5162
    Quadrupole Moments (Debye-Ang)
        XX    -780.8862     XY       5.7320     YY    -834.0780
        XZ     -12.2069     YZ      14.9982     ZZ    -793.7985
    Octopole Moments (Debye-Ang^2)
       XXX    -377.8539    XXY      55.1967    XYY      63.2144
       YYY    -250.3010    XXZ     273.6222    XYZ      -6.8145
       YYZ       8.3292    XZZ     -64.9167    YZZ      92.3155
       ZZZ     281.9688
    Hexadecapole Moments (Debye-Ang^3)
      XXXX -151486.1410   XXXY   -3025.6812   XXYY  -37560.2406
      XYYY    1258.8405   YYYY  -52307.6273   XXXZ   -1594.1765
      XXYZ    1370.8269   XYYZ   -1104.5576   YYYZ     818.9091
      XXZZ  -30197.4568   XYZZ    -872.0057   YYZZ  -13055.5813
      XZZZ      76.6080   YZZZ     347.1207   ZZZZ  -27021.0394
 -----------------------------------------------------------------
Archival summary:
1\1\mn251\SP\ProcedureUnspecified\6-31G**\428\afmv_a\FriOct1213:07:502018FriOct1213:07:502018\0\\#,ProcedureUnspecified,6-31G**,\\0,1\C\C,1,1.40843\C,2,1.37606,1,108.999\C,3,1.38994,2,108.819,1,2.45615,0\C,4,1.37987,3,120.907,2,143.983,0\C,5,1.36837,4,117.035,3,-140.929,0\C,5,1.39643,4,121.593,3,-3.10242,0\C,6,1.4019,5,121.611,4,-2.62734,0\C,8,1.37508,6,119.917,5,2.70814,0\C,9,1.39903,8,120.828,6,-4.04632,0\C,2,1.40604,1,119.668,3,142.601,0\C,11,1.38663,2,123.602,1,-146.687,0\C,8,1.40974,6,118.953,5,139.023,0\C,13,1.38304,8,119.853,6,0.978155,0\C,14,1.38905,13,120.293,8,-1.28832,0\C,15,1.37855,14,122.111,13,1.51471,0\C,16,1.36938,15,118.775,14,-137.63,0\C,17,1.3884,16,125.37,15,-5.49785,0\C,18,1.38406,17,117.729,16,139.326,0\C,18,1.38494,17,117.257,16,3.65668,0\C,20,1.38592,18,119.692,17,-0.487948,0\C,20,1.38745,18,106.395,17,136.455,0\C,22,1.39256,20,121.734,18,-143.587,0\C,23,1.37576,22,121.45,20,145.179,0\C,24,1.36375,23,107.936,22,-142.831,0\C,13,1.39873,8,108.905,6,-141.861,0\C,21,1.39884,20,122.094,18,136.232,0\C,27,1.38119,21,118.683,20,0.925326,0\C,19,1.40462,18,122.771,17,5.65287,0\C,22,1.40515,20,109.92,18,1.33849,0\C,30,1.40569,22,121.907,20,-150.314,0\C,31,1.38137,30,120.311,22,3.36448,0\C,31,1.38875,30,116.124,22,142.909,0\C,14,1.4068,13,118.959,8,-135.095,0\C,33,1.41285,31,121.075,30,-6.02289,0\C,34,1.41699,14,121.866,13,-1.22287,0\C,36,1.37869,34,123.039,14,143.014,0\C,36,1.39557,34,119.404,14,-1.29439,0\C,38,1.40883,36,107.523,34,143.732,0\C,39,1.38746,38,108.227,36,4.70962,0\C,3,1.41949,2,120.99,1,145.521,0\C,41,1.40014,3,120.617,2,-137.319,0\C,1,1.41965,2,121.23,3,-147.628,0\C,43,1.4008,1,115.564,2,137.636,0\C,44,1.39883,43,104.98,1,-138.456,0\C,45,1.39819,44,112.39,43,0.295702,0\C,46,1.36321,45,103.975,44,0.581175,0\C,44,1.41237,43,121.41,1,3.19675,0\C,37,1.42028,36,117.747,34,-0.258633,0\C,46,1.42287,45,119.02,44,141.387,0\C,50,1.35832,46,119.388,45,-138.295,0\C,51,1.38008,50,106.402,46,148.135,0\C,50,1.38234,46,121.506,45,6.79069,0\C,52,1.4165,51,111.245,50,-0.804713,0\C,12,1.43076,11,115.863,2,8.98566,0\C,51,1.43746,50,122.223,46,1.72462,0\C,56,1.40306,51,114.954,50,7.76981,0\C,32,1.44179,31,108.273,30,136.854,0\C,58,1.49589,32,107.72,31,8.9653,0\C,59,1.45724,58,120.198,32,-149.991,0\C,60,1.52762,59,62.5234,58,-118.15,0\C,61,1.50363,60,123.239,59,-107.004,0\C,62,1.37519,61,117.49,60,-64.4993,0\H,63,1.08617,62,117.129,61,4.60054,0\C,63,1.37477,62,123.05,61,176.884,0\H,65,1.08563,63,121.819,62,-175.974,0\C,65,1.38478,63,118.089,62,8.25183,0\H,67,1.08593,65,124.419,63,178.101,0\C,67,1.40318,65,120.825,63,0.758943,0\H,69,1.08655,67,119.843,65,-174.54,0\C,62,1.4237,61,121.533,60,122.45,0\H,71,1.08574,62,122.951,61,-4.26762,0\C,61,1.58175,60,112.295,59,109.534,0\H,73,1.09628,61,105.82,60,59.5492,0\H,73,1.09648,61,113.679,60,-52.776,0\C,73,1.56418,61,113.68,60,-175.968,0\H,76,1.09682,73,111.115,61,43.6773,0\H,76,1.09742,73,106.115,61,-72.0379,0\C,76,1.60258,73,113.432,61,175.226,0\H,79,1.09628,76,108.403,73,43.2825,0\H,79,1.09711,76,114.739,73,-78.421,0\C,79,1.49252,76,112.972,73,164.391,0\O,82,1.20821,79,126.118,76,-136.659,0\O,82,1.36275,79,113.668,76,43.8881,0\C,84,1.43557,82,122.033,79,162.026,0\H,85,1.09671,84,111.895,82,-148.102,0\H,85,1.09704,84,105.686,82,93.6838,0\H,85,1.09705,84,112.878,82,-32.2851,0\C,1,3.39707,2,98.9591,3,97.3451,0\C,89,1.4105,1,113.646,2,-52.48,0\C,90,1.36771,89,109.762,1,99.3642,0\C,91,1.40205,90,121.218,89,140.662,0\C,92,1.39573,91,121.168,90,-138.696,0\C,93,1.38623,92,105.298,91,141.175,0\C,94,1.3807,93,121.25,92,-143.587,0\C,95,1.39234,94,119.299,93,0.584598,0\C,96,1.38542,95,120.414,94,4.96229,0\C,97,1.3856,96,121.361,95,-8.68815,0\C,96,1.40616,95,106.132,94,142.91,0\C,98,1.41126,97,109.887,96,146.034,0\C,94,1.41275,93,111.287,92,2.30432,0\C,101,1.38285,94,124.592,93,-149.244,0\C,101,1.39049,94,107.348,93,-3.7044,0\C,103,1.40237,101,122.33,94,-145.289,0\C,104,1.40061,103,117.06,101,135.673,0\C,105,1.40209,104,107.236,103,-140.586,0\C,106,1.37675,105,120.459,104,151.539,0\C,107,1.38978,106,117.478,105,-135.904,0\C,108,1.39851,107,106.639,106,138.506,0\C,109,1.40275,108,112.516,107,-2.88079,0\C,110,1.40172,109,120.955,108,-138.658,0\C,111,1.38374,110,121.606,109,-2.91422,0\C,112,1.3795,111,110.734,110,142.768,0\C,111,1.38744,110,123.494,109,139.689,0\C,113,1.40664,112,121.921,111,-142.061,0\C,115,1.36396,113,118.415,112,136.703,0\C,116,1.38271,115,110.086,113,-142.68,0\C,117,1.3952,116,106.449,115,1.81431,0\C,118,1.3849,117,108.375,116,-0.379119,0\C,118,1.39155,117,118.809,116,146.476,0\C,120,1.36255,118,123.97,117,-2.71415,0\C,119,1.39533,118,124.922,117,145.34,0\C,116,1.40475,115,122.995,113,4.9935,0\C,114,1.40765,111,109.571,110,-138.38,0\C,124,1.35946,114,125.782,111,142.401,0\C,122,1.41368,119,120.334,118,-131.135,0\C,126,1.41424,122,108.203,119,132.412,0\C,127,1.39799,126,107.521,122,1.07289,0\C,128,1.40456,127,109.257,126,-5.47019,0\C,128,1.40691,127,116.091,126,-147.662,0\C,130,1.39409,128,120.159,127,134.448,0\C,131,1.39249,130,117.33,128,5.60385,0\C,132,1.38492,131,123.55,130,-5.36486,0\C,131,1.39712,130,110.898,128,-144.952,0\C,134,1.38061,131,119.065,130,146.483,0\C,134,1.39104,131,106.593,130,4.86614,0\C,136,1.39332,134,121.409,131,142.448,0\C,108,1.41434,107,120.477,106,-6.49143,0\C,95,1.41461,94,122.495,93,145.17,0\C,139,1.39249,95,107.674,94,-143.841,0\C,139,1.41524,95,115.923,94,-3.04573,0\C,110,1.41574,109,103.961,108,-0.153136,0\C,141,1.4177,139,120.808,95,-135.807,0\C,143,1.40132,141,119.534,139,1.69491,0\C,89,1.43721,1,87.5571,2,56.4141,0\C,100,1.43823,98,119.977,97,-136.849,0\C,137,1.45409,136,120.842,134,2.95082,0\C,147,1.46889,137,118.607,136,-3.2867,0\C,147,1.54636,137,128.753,136,72.5993,0\C,149,1.53957,147,118.907,137,-1.11879,0\H,150,1.09691,149,116.958,147,-32.9965,0\H,150,1.09728,149,110.138,147,-140.665,0\C,150,1.53781,149,117.139,147,93.2406,0\H,153,1.09715,150,106.561,149,163.29,0\H,153,1.09734,150,106.213,149,57.5877,0\C,153,1.53199,150,112.215,149,-70.2178,0\H,156,1.0964,153,103.671,150,64.0653,0\H,156,1.09789,153,106.1,150,-51.0662,0\C,156,1.50652,153,115.218,150,-179.302,0\O,159,1.24895,156,121.118,153,-9.73329,0\O,159,1.42495,156,109.893,153,175.055,0\C,161,1.43469,159,113.336,156,167.386,0\H,162,1.09645,161,107.373,159,-178.461,0\H,162,1.09695,161,107.786,159,68.493,0\H,162,1.097,161,115.681,159,-52.2338,0\C,149,1.54662,147,120.13,137,152.68,0\C,166,1.39771,149,123.437,147,-57.3722,0\H,167,1.08602,166,122.454,149,-7.85227,0\C,166,1.40327,149,116.843,147,117.957,0\H,169,1.08624,166,118.175,149,14.9943,0\C,167,1.43223,166,117.978,149,166.456,0\H,171,1.08543,167,120.351,166,179.504,0\C,171,1.41412,167,122.649,166,11.135,0\H,173,1.08583,171,120.05,167,-176.895,0\C,173,1.37964,171,117.124,167,-3.85097,0\H,175,1.08576,173,115.264,171,177.662,0\\\@

 Total job time:  833.39s(wall), 7933.06s(cpu) 
 Fri Oct 12 13:07:50 2018

        *************************************************************
        *                                                           *
        *  Thank you very much for using Q-Chem.  Have a nice day.  *
        *                                                           *
        *************************************************************


