
Running Job 1 of 1 ./9/20.qcin
qchem ./9/20.qcin_31206.0 /tmpu/cab_g/afmv_a/scratch_qchem/qchem31206/ 1
/tmpu/appuserlic/qchem4.4/serial-multicore/exe/qcprog.exe_s ./9/20.qcin_31206.0 /tmpu/cab_g/afmv_a/scratch_qchem/qchem31206/
Check license passed

                  Welcome to Q-Chem
     A Quantum Leap Into The Future Of Chemistry


 Q-Chem 4.4, Q-Chem, Inc., Pleasanton, CA (2016)

 Y. Shao,  Z. Gan,  E. Epifanovsky,  A. T. B. Gilbert,  M. Wormit,  
 J. Kussmann,  A. W. Lange,  A. Behn,  J. Deng,  X. Feng,  D. Ghosh,  
 M. Goldey,  P. R. Horn,  L. D. Jacobson,  I. Kaliman,  F. Rob,  
 R. Z. Khaliullin,  T. Kus,  A. Landau,  J. Liu,  E. I. Proynov,  Y. M. Rhee,  
 R. M. Richard,  M. A. Rohrdanz,  R. P. Steele,  E. J. Sundstrom,  
 H. L. Woodcock III,  P. M. Zimmerman,  D. Zuev,  B. Albrecht,  E. Alguire,  
 B. Austin,  S. A. Baeppler,  G. J. O. Beran,  Y. A. Bernard,  E. Berquist,  
 K. Brandhorst,  K. B. Bravaya,  S. T. Brown,  D. Casanova,  C.-M. Chang,  
 Y. Chen,  S. H. Chien,  K. D. Closser,  M. P. Coons,  D. L. Crittenden,  
 S. Dasgupta,  M. Diedenhofen,  R. A. DiStasio Jr.,  H. Do,  A. D. Dutoi,  
 R. G. Edgar,  P.-T. Fang,  S. Fatehi,  Q. Feng,  L. Fusti-Molnar,  
 A. Ghysels,  A. Golubeva-Zadorozhnaya,  J. Gomes,  A. Gunina,  
 M. W. D. Hanson-Heine,  P. H. P. Harbach,  A. W. Hauser,  J. E. Herr,  
 E. G. Hohenstein,  Z. C. Holden,  K. Hui,  T.-C. Jagau,  H. Ji,  B. Kaduk,  
 K. Khistyaev,  Jaehoon Kim,  Jihan Kim,  R. A. King,  P. Klunzinger,  
 K. Koh,  D. Kosenkov,  T. Kowalczyk,  C. M. Krauter,  A. Kunitsa,  
 K. U. Lao,  A. Laurent,  K. V. Lawler,  J. Lee,  D. Lefrancois,  S. Lehtola,  
 S. V. Levchenko,  C. Y. Lin,  Y.-S. Lin,  F. Liu,  E. Livshits,  
 R. C. Lochan,  A. Luenser,  P. Manohar,  S. F. Manzer,  S.-P. Mao,  Y. Mao,  
 N. Mardirossian,  A. V. Marenich,  L. A. Martinez-Martinez,  S. A. Maurer,  
 N. J. Mayhall,  J.-M. Mewes,  A. F. Morrison,  K. Nanda,  T. S. Nguyen-Beck,  
 C. M. Oana,  R. Olivares-Amaya,  D. P. O'Neill,  J. A. Parkhill,  
 T. M. Perrine,  R. Peverati,  P. A. Pieniazek,  F. Plasser,  A. Prociuk,  
 D. R. Rehn,  E. Rosta,  N. J. Russ,  N. Sergueev,  S. M. Sharada,  
 S. Sharma,  D. W. Small,  A. Sodt,  T. Stauch,  T. Stein,  D. Stuck,  
 Y.-C. Su,  A. J. W. Thom,  T. Tsuchimochi,  L. Vogt,  O. Vydrov,  T. Wang,  
 M. A. Watson,  J. Wenzel,  A. White,  C. F. Williams,  V. Vanovschi,  
 K. Yao,  S. Yeganeh,  S. R. Yost,  Z.-Q. You,  I. Y. Zhang,  X. Zhang,  
 Y. Zhao,  B. R. Brooks,  G. K. L. Chan,  D. M. Chipman,  C. J. Cramer,  
 W. A. Goddard III,  M. S. Gordon,  W. J. Hehre,  A. Klamt,  
 H. F. Schaefer III,  M. W. Schmidt,  C. D. Sherrill,  D. G. Truhlar,  
 A. Warshel,  X. Xu,  A. Aspuru-Guzik,  R. Baer,  A. T. Bell,  N. A. Besley,  
 J.-D. Chai,  A. Dreuw,  B. D. Dunietz,  T. R. Furlani,  S. R. Gwaltney,  
 C.-P. Hsu,  Y. Jung,  J. Kong,  D. S. Lambrecht,  W. Liang,  C. Ochsenfeld,  
 V. A. Rassolov,  L. V. Slipchenko,  J. E. Subotnik,  T. Van Voorhis,  
 J. M. Herbert,  A. I. Krylov,  P. M. W. Gill,  M. Head-Gordon

 Contributors to earlier versions of Q-Chem not listed above: 
 R. D. Adamson,  J. Baker,  E. F. C. Byrd,  A. K. Chakraborty,  C.-L. Cheng,  
 H. Dachsel,  R. J. Doerksen,  G. Hawkins,  A. Heyden,  S. Hirata,  
 G. Kedziora,  F. J. Keil,  C. Kelley,  P. P. Korambath,  W. Kurlancheek,  
 A. M. Lee,  M. S. Lee,  D. Liotard,  I. Lotan,  P. E. Maslen,  N. Nair,  
 D. Neuhauser,  R. Olson,  B. Peters,  J. Ritchie,  N. E. Schultz,  
 N. Shenvi,  A. C. Simmonett,  K. S. Thanthiriwatte,  Q. Wu,  W. Zhang

 Please cite Q-Chem as follows:
 Y. Shao et al., Mol. Phys. 113, 184-215 (2015)
 DOI: 10.1080/00268976.2014.952696

 Q-Chem 4.4.2 for Intel X86 Linux

 Parts of Q-Chem use Armadillo 5.200.1 (Boston Tea Smuggler).
 http://arma.sourceforge.net/

 Q-Chem begins on Fri Oct 12 13:52:43 2018  

Host: 
0

     Scratch files written to /tmpu/cab_g/afmv_a/scratch_qchem/qchem31206//
 Dec716 11556_ 22328  22283 4050   
Processing $rem in /tmpu/appuserlic/qchem4.4/serial-multicore/config/preferences.
 MEM_TOTAL  2000 
FILE_GEOM_ORG=        593

Checking the input file for inconsistencies... 	...done.

--------------------------------------------------------------
User input:
--------------------------------------------------------------
$comment
SP
$end

$rem
MEM_STATIC 5000
MEM_TOTAL 20000
JOBTYPE SP
EXCHANGE B3LYP
BASIS 6-31g(d,p)
$end

$molecule
0 1
O         -10.747000      6.368000     -1.480000
C         -11.336000      7.367000     -2.331000
H         -12.049000      7.948000     -1.732000
H         -11.897000      6.799000     -3.082000
H         -10.574000      8.031000     -2.759000
O         -12.825000      5.823000     -0.407000
C         -11.609000      5.586000     -0.654000
C         -10.789000      4.542000      0.028000
H         -10.194000      4.968000      0.845000
H         -10.162000      4.059000     -0.732000
C         -11.605000      3.425000      0.758000
H         -12.024000      3.832000      1.687000
H         -12.414000      3.130000      0.079000
C         -10.735000      2.136000      1.018000
H         -10.451000      1.716000      0.046000
H          -9.819000      2.512000      1.490000
C         -11.363000      1.120000      2.032000
C         -12.517000      0.393000      1.390000
C         -12.352000     -0.798000      0.651000
H         -11.339000     -1.187000      0.688000
C         -13.401000     -1.358000     -0.077000
H         -13.223000     -2.371000     -0.425000
C         -14.684000     -0.819000      0.029000
H         -15.496000     -1.404000     -0.393000
C         -14.876000      0.372000      0.709000
H         -15.866000      0.804000      0.818000
C         -13.814000      0.956000      1.413000
H         -14.098000      1.763000      2.083000
C         -13.663000      0.605000      6.903000
C         -12.792000     -1.640000      6.407000
C          -9.351000     -1.558000      9.360000
C          -9.885000      4.081000      6.451000
C          -6.917000     -0.717000      7.058000
C         -13.411000     -0.463000      5.975000
C          -7.529000      2.833000      7.192000
C         -11.616000     -0.737000      9.534000
C          -9.556000     -1.415000      4.021000
C          -9.063000      3.619000      5.490000
C         -10.532000      0.496000      3.104000
C          -8.532000     -0.471000      3.905000
C          -7.624000      1.921000      4.919000
C          -6.898000      1.615000      7.602000
C         -11.921000     -1.131000      4.408000
C          -7.697000     -0.009000      9.196000
C         -11.482000      1.590000      3.448000
C         -10.907000      2.810000      4.152000
C          -7.473000     -1.057000      8.244000
C         -10.729000      2.713000      9.492000
C          -9.789000      0.758000     10.193000
C         -11.159000      0.502000     10.066000
C         -12.680000     -0.778000      8.675000
C         -11.802000      3.176000      5.173000
C         -10.775000     -0.852000      3.661000
C         -12.469000     -1.875000      7.796000
C          -7.869000      2.967000      5.815000
C         -11.897000     -2.079000      5.424000
C          -7.540000     -0.484000      4.881000
C         -11.739000      3.544000      7.552000
C         -10.682000     -1.764000      9.188000
C          -9.068000      0.758000      3.404000
C         -12.812000      1.693000      8.717000
C          -6.960000      0.729000      5.319000
C          -9.552000     -2.407000      5.057000
C          -8.320000      2.368000      9.234000
C          -8.343000      3.362000      8.230000
C          -8.469000     -2.411000      5.999000
C         -11.261000      3.775000      6.314000
C          -9.553000      2.986000      4.393000
C         -10.731000      3.708000      8.503000
C         -12.590000      1.234000      4.356000
C         -10.392000     -2.954000      7.118000
C          -8.675000      1.988000      3.998000
C          -7.467000     -1.399000      5.917000
C         -12.778000      2.625000      7.638000
C          -8.455000     -2.080000      8.346000
C         -13.280000      0.446000      8.231000
C          -8.910000     -0.314000      9.819000
C         -10.703000     -2.794000      5.768000
C          -8.998000     -2.711000      7.226000
C         -12.887000     -0.108000      4.750000
C         -12.767000      2.184000      5.280000
C          -9.542000      2.084000      9.915000
C         -11.289000     -2.505000      8.110000
C          -6.610000      0.588000      6.709000
C          -9.532000      3.978000      7.830000
C          -7.450000      1.325000      8.847000
C         -13.350000      1.907000      6.554000
C         -11.716000      1.709000      9.636000
O           2.398000     -8.503000      1.903000
C           2.025000     -7.975000      0.634000
H           0.942000     -7.876000      0.490000
H           2.219000     -8.670000     -0.193000
H           2.509000     -6.998000      0.512000
O           1.002000    -10.292000      1.676000
C           1.753000     -9.641000      2.413000
C           2.239000     -9.983000      3.853000
H           3.325000     -9.951000      3.705000
H           1.867000    -11.000000      4.026000
C           1.835000     -8.924000      4.811000
H           2.139000     -9.342000      5.778000
H           2.610000     -8.160000      4.677000
C           0.407000     -8.476000      4.751000
H           0.184000     -7.902000      3.843000
H          -0.185000     -9.387000      4.598000
C          -0.036000     -7.591000      5.995000
C           1.015000     -6.587000      6.323000
C           1.819000     -6.749000      7.504000
H           1.660000     -7.617000      8.138000
C           2.680000     -5.754000      7.962000
H           3.361000     -5.987000      8.775000
C           2.821000     -4.547000      7.179000
H           3.521000     -3.762000      7.449000
C           1.978000     -4.303000      6.077000
H           2.113000     -3.377000      5.526000
C           1.098000     -5.339000      5.558000
H           0.509000     -5.217000      4.654000
C          -2.755000     -6.996000     10.749000
C          -3.191000     -4.927000      9.540000
C          -7.669000     -5.817000      8.607000
C          -3.921000    -11.050000      7.858000
C          -6.850000     -6.975000      5.386000
C          -2.327000     -6.011000      9.876000
C          -6.038000    -10.234000      6.274000
C          -6.303000     -6.196000     10.664000
C          -3.110000     -5.466000      5.510000
C          -3.705000    -10.661000      6.552000
C          -1.493000     -7.154000      5.945000
C          -3.441000     -6.642000      4.803000
C          -4.325000     -9.307000      4.826000
C          -6.948000     -9.307000      5.885000
C          -1.978000     -5.429000      7.641000
C          -8.054000     -7.627000      7.364000
C          -1.040000     -8.087000      7.055000
C          -1.704000     -9.419000      7.190000
C          -7.660000     -6.635000      6.477000
C          -6.170000     -9.727000     10.237000
C          -7.636000     -8.049000      9.693000
C          -6.786000     -7.542000     10.711000
C          -4.987000     -5.890000     10.987000
C          -1.937000     -9.741000      8.528000
C          -2.004000     -5.809000      6.282000
C          -4.527000     -4.860000     10.098000
C          -4.742000    -10.301000      5.747000
C          -3.012000     -4.616000      8.150000
C          -4.801000     -6.939000      4.540000
C          -3.805000    -10.278000     10.009000
C          -6.740000     -5.368000      9.613000
C          -2.539000     -7.669000      4.999000
C          -4.538000     -8.299000     11.292000
C          -5.225000     -8.260000      4.513000
C          -4.194000     -4.696000      6.050000
C          -7.314000     -9.783000      8.054000
C          -6.287000    -10.621000      7.569000
C          -5.549000     -4.989000      5.813000
C          -3.035000    -10.575000      8.869000
C          -2.624000     -9.822000      6.192000
C          -5.151000    -10.565000      9.717000
C          -1.190000     -7.569000      8.497000
C          -5.443000     -4.259000      7.929000
C          -3.030000     -9.004000      5.165000
C          -5.854000     -6.086000      5.056000
C          -3.555000     -9.156000     10.806000
C          -7.456000     -5.468000      7.247000
C          -4.087000     -6.953000     11.234000
C          -8.057000     -7.157000      8.676000
C          -4.174000     -4.265000      7.392000
C          -6.333000     -4.613000      6.953000
C          -1.535000     -6.237000      8.710000
C          -1.660000     -8.598000      9.318000
C          -7.293000     -9.358000      9.394000
C          -5.644000     -4.560000      9.279000
C          -6.563000     -8.303000      4.984000
C          -5.172000    -10.999000      8.380000
C          -7.744000     -8.959000      7.064000
C          -2.435000     -8.317000     10.495000
C          -5.844000     -8.611000     10.967000
$end

--------------------------------------------------------------
 ----------------------------------------------------------------
             Standard Nuclear Orientation (Angstroms)
    I     Atom           X                Y                Z
 ----------------------------------------------------------------
    1      O     -10.9867895286     6.7592161060     0.7365731700
    2      C     -12.2626416288     7.4204053173     0.6721274948
    3      H     -13.0431505897     6.6762772663     0.8766029354
    4      H     -12.3575187696     7.7438150178    -0.3708252816
    5      H     -12.3266656686     8.2427538795     1.3962599168
    6      O     -11.7537749688     4.8112148340    -0.4396336056
    7      C     -10.8277770055     5.5217363725     0.0436064127
    8      C      -9.3989094641     5.1034003257     0.1474933767
    9      H      -9.1656626042     4.7128289800     1.1455113757
   10      H      -8.7766355878     5.9685460995    -0.1138799440
   11      C      -8.9831182179     3.9149302558    -0.7804621892
   12      H      -9.3815249670     2.9787297541    -0.3693032383
   13      H      -9.4267913023     4.1118371178    -1.7637876094
   14      C      -7.4216307050     3.8504500405    -0.9893163221
   15      H      -7.1105295779     4.7634322194    -1.5103917770
   16      H      -7.0055433240     3.8967813473     0.0245577832
   17      C      -6.9027684474     2.5101146162    -1.6131102850
   18      C      -7.2509413625     2.4512992971    -3.0786222704
   19      C      -6.4116049447     2.9776023834    -4.0837821776
   20      H      -5.4548667321     3.3230022863    -3.7040323922
   21      C      -6.8287783422     3.0685899215    -5.4110623381
   22      H      -6.0375542440     3.2847963652    -6.1225229485
   23      C      -8.0456841233     2.5037875254    -5.7957499689
   24      H      -8.2314819612     2.4238606417    -6.8628693890
   25      C      -8.9138245193     2.0178106416    -4.8324723759
   26      H      -9.8594719571     1.5606381898    -5.1069705958
   27      C      -8.5101224936     1.9577239072    -3.4916031583
   28      H      -9.1603088813     1.3762246889    -2.8435897940
   29      C      -7.1258278328    -2.8860563370    -1.2762875515
   30      C      -5.0075264552    -2.4416985460    -2.4424896897
   31      C      -2.2521876953    -3.5324365691     0.9905574820
   32      C      -7.2645219129    -0.2538529046     3.1523051192
   33      C      -1.6975803613    -0.2933067295     2.0541784610
   34      C      -6.3545079550    -2.1341547407    -2.2276138023
   35      C      -4.6660612356    -0.0865955571     4.0889737309
   36      C      -4.3076734960    -4.5397303879     0.2192733024
   37      C      -3.4918501590     1.1195632349    -1.3309786043
   38      C      -6.5670691833     0.8776983625     2.9382947924
   39      C      -5.7001629285     1.8221005521    -1.0567851880
   40      C      -3.5295759844     1.8275592267    -0.1266171811
   41      C      -4.4887533966     1.7280922340     2.4510579360
   42      C      -3.2853869237    -0.3762970619     3.8448498226
   43      C      -5.1811678961    -0.2093529848    -2.4281737848
   44      C      -2.3264231774    -2.4054613045     2.9619602431
   45      C      -7.0587051869     1.2853083729    -0.7671490567
   46      C      -7.4393603599     1.1184255471     0.6963716167
   47      C      -1.5926045509    -1.6412588039     1.9964092286
   48      C      -6.2508355024    -3.5385855758     3.0322545470
   49      C      -4.0745466139    -4.0733479162     2.6141374420
   50      C      -4.8119930733    -4.6030626786     1.5491773534
   51      C      -5.1380995854    -4.2528820181    -0.8294251875
   52      C      -8.1034775137    -0.1141023788     0.8276930461
   53      C      -4.7715355727     0.9985383984    -1.8604011491
   54      C      -4.3633782342    -3.5670534879    -1.8041133711
   55      C      -5.2454100464     1.0038552267     3.3783704354
   56      C      -4.2830017969    -1.2549388400    -2.6058923200
   57      C      -2.6851330431     1.3968170480     0.8922970911
   58      C      -7.8848624770    -2.1272905921     2.1308870776
   59      C      -3.0089295756    -3.9969809481    -0.0366334674
   60      C      -4.8728888122     2.2410589280     0.1440609370
   61      C      -7.0206978183    -3.9351141086     0.7453371595
   62      C      -3.1072405640     1.4660017686     2.2401293193
   63      C      -2.5709644722     0.0402099550    -1.5415541230
   64      C      -4.4638945994    -2.3146014272     4.1713660486
   65      C      -5.3927322421    -1.2715007634     4.3853348285
   66      C      -1.6796475557    -0.3191852230    -0.4754123592
   67      C      -7.9712887770    -0.7857045205     2.0462330336
   68      C      -6.6326712598     1.5270483440     1.7473964050
   69      C      -7.1637885938    -2.4993879386     3.2662095074
   70      C      -7.3569821973    -0.0610876317    -1.2935639348
   71      C      -2.3375895488    -2.2397086099    -1.5354318186
   72      C      -5.4010878025     2.0934464323     1.4553203994
   73      C      -1.7750991047     0.3604995972     0.7751033532
   74      C      -7.8808670323    -2.8111631510     0.9210191676
   75      C      -1.4722293680    -2.3317060286     0.7594575540
   76      C      -6.5091486252    -3.9185763672    -0.5768855624
   77      C      -2.7843542026    -3.5374256981     2.2826379428
   78      C      -2.9117952565    -1.1560911160    -2.1994212252
   79      C      -1.5784389408    -1.6848785971    -0.4725098971
   80      C      -6.4987755157    -0.7632314574    -2.1962733785
   81      C      -7.9936194947    -0.7963561713    -0.3761337597
   82      C      -4.9322011085    -3.4982468950     3.5253216074
   83      C      -3.0690417118    -3.4336260294    -1.3627676109
   84      C      -2.5137728110     0.3672683739     2.9578074878
   85      C      -6.6988817041    -1.3352087814     3.8922913501
   86      C      -3.2032227015    -1.7662856230     3.8479867905
   87      C      -7.9358865801    -2.2233579898    -0.3709645559
   88      C      -6.1397450766    -4.2651600571     1.8228458318
   89      O       9.1425886548     7.0358159551     0.3989617449
   90      C       8.2741879489     8.0821910349    -0.0244215404
   91      H       7.4630714800     7.7523007390    -0.6852456217
   92      H       8.7540403300     8.7817616871    -0.7207925586
   93      H       7.8563024472     8.5648221424     0.8678272599
   94      O       9.4883240866     6.3271103822    -1.7409142847
   95      C       9.6448805869     6.1130306166    -0.5323486406
   96      C      10.4838321836     4.9960331873     0.1570256854
   97      H      11.1465762960     5.6071346259     0.7812446159
   98      H      11.0140917033     4.5106417833    -0.6711180381
   99      C       9.6247928692     4.1496398978     1.0219712650
  100      H      10.3109498843     3.3583154945     1.3463525828
  101      H       9.5514146900     4.7345807747     1.9464910395
  102      C       8.3478941411     3.6529092576     0.4167636070
  103      H       7.6121637388     4.4535744104     0.2708009812
  104      H       8.5950784691     3.3770659489    -0.6160017957
  105      C       7.6438274616     2.5076813135     1.2651462252
  106      C       7.6632578670     2.8451666758     2.7163274991
  107      C       8.5313062071     2.1261722482     3.6090537126
  108      H       9.1792018017     1.3514595846     3.2081639681
  109      C       8.4567794790     2.2641815324     4.9934341532
  110      H       9.2268417873     1.8047168492     5.6057373839
  111      C       7.5216768949     3.2192917348     5.5440398728
  112      H       7.4593814055     3.4179442342     6.6097703530
  113      C       6.5829423112     3.8651135059     4.7156193146
  114      H       5.8924884911     4.5656718350     5.1758296468
  115      C       6.6634766468     3.7658503621     3.2662339107
  116      H       6.0178576861     4.3274293089     2.5977832811
  117      C       6.3131861638    -2.7830088274     2.0303217404
  118      C       4.2897674370    -1.5598867714     2.6153748080
  119      C       1.8211469894    -2.8425811684    -1.1230314260
  120      C       7.9642024552    -1.4153047256    -2.6125096905
  121      C       2.6011472013     0.1684762667    -2.7697550798
  122      C       5.7119139672    -1.6599168388     2.5713153916
  123      C       5.6801980483    -0.8052553303    -4.0504820839
  124      C       3.3811648933    -4.1260846545     0.3465974186
  125      C       3.9812279645     1.9466261121     0.5789188688
  126      C       7.5774859582    -0.1018372517    -2.7824112682
  127      C       6.3577702129     1.9875938285     0.6391400264
  128      C       4.4895866131     2.2302241849    -0.7069775568
  129      C       5.8581498880     1.3782618108    -3.0059783562
  130      C       4.3324850786    -0.7047270857    -4.1614497519
  131      C       5.0976443318     0.5648540745     2.2124042624
  132      C       2.6563519996    -2.2148338010    -3.0922291900
  133      C       7.5445883587     1.0490797087     0.7749779287
  134      C       8.1057263493     0.4169567841    -0.4574545293
  135      C       2.0249980401    -1.0930723194    -2.5734687864
  136      C       5.9660172898    -4.2802130464    -2.0952792218
  137      C       3.6756015610    -4.1604911351    -2.1162184987
  138      C       4.0550038860    -4.6036214736    -0.8217833405
  139      C       4.0833497033    -3.7848329351     1.4956425685
  140      C       8.4383588168    -0.9210347277    -0.2398508625
  141      C       5.1032576513     1.6909030080     1.3615580424
  142      C       3.4672652821    -2.6260927383     2.0792367274
  143      C       6.4822172523     0.2160630333    -3.5255935276
  144      C       3.9199248875    -0.2014002364     2.3350306931
  145      C       3.7631546886     1.8182125343    -1.8513206254
  146      C       7.8800281208    -3.1363806651    -1.1068359901
  147      C       2.2925649810    -3.2502408924     0.1762978728
  148      C       5.8688677204     2.2800422962    -0.7499982844
  149      C       6.1940860784    -4.2602280472     0.3053911486
  150      C       4.4436585564     1.4360445520    -2.9986689244
  151      C       2.8078402892     1.1239303088     0.6556585508
  152      C       4.8458374185    -2.8609125084    -3.7710310050
  153      C       6.0417020387    -2.1231017927    -3.9042269430
  154      C       2.0866475275     0.6917986403    -0.4718103940
  155      C       8.3893144782    -1.8418478365    -1.3201928785
  156      C       7.6081456855     0.8291648181    -1.7173398494
  157      C       7.1500644185    -3.5149736733    -2.2484004113
  158      C       7.3381098912    -0.2042444770     1.6448820199
  159      C       2.0199989458    -1.0097366276     0.9848734079
  160      C       6.5517194611     1.6956895941    -1.8649455566
  161      C       2.5450602093     1.0441420612    -1.7108402270
  162      C       7.3747107276    -3.5439504153     0.1321693492
  163      C       1.4515369012    -1.4893882455    -1.3444525095
  164      C       5.4971517865    -3.7869668161     1.4494136134
  165      C       2.5571734702    -3.2970065988    -2.2196934285
  166      C       2.7578699015     0.0187952473     1.5293315194
  167      C       1.5104928622    -0.5956657005    -0.2146851851
  168      C       6.1789623263    -0.3209314632     2.4073641969
  169      C       7.9341480364    -1.3071034760     1.0266405155
  170      C       4.8005292335    -3.9648448083    -2.9015790824
  171      C       2.3605851817    -2.3408295687     1.2411829824
  172      C       3.6838323400     0.4274729284    -3.6462655587
  173      C       7.2025043470    -2.4151951492    -3.1225304084
  174      C       3.7761898984    -2.0365774706    -3.9135158397
  175      C       7.4401881380    -2.6391897153     1.2421976301
  176      C       5.5024792536    -4.5963407188    -0.8423515368
 ----------------------------------------------------------------
 Molecular Point Group                 C1    NOp =  1
 Largest Abelian Subgroup              C1    NOp =  1
 Nuclear Repulsion Energy = 33588.2907963136 hartrees
 There are      462 alpha and      462 beta electrons
 Requested basis set is 6-31G(d,p)
 There are 676 shells and 2360 basis functions

 Total QAlloc Memory Limit  20000 MB
 Mega-Array Size      4888 MB
 MEM_STATIC part      5000 MB
 A cutoff of  1.0D-08 yielded  36535 shell pairs
 There are    517407 function pairs
 
 -------------------------------------------------------
 OpenMP Integral Computing Module                       
 Release: version 1.0, May 2013, Q-Chem Inc. Pittsburgh 
 -------------------------------------------------------
 Integral Job Info:
 Integral job number is                      11
 Integral operator is                         1
 short-range coefficients                     0
 long-range coefficients              100000000
 Omega coefficients                           0
 if combine SR and LR in K                    0
 Integral screening is                        0
 Integral computing path is                   2
 max size of driver memory is            800000
 size of driver memory is                593474
 size of scratch memory is              2260544
 max col of scratch BK array               1296
 max len of scratch array in speh3          155
 max len of scratch index in speh4           18
 max int batch size is                      520
 min int batch size is                       52
 fixed nKL is                                52
 max L of basis functions is                  2
 order of int derivative is                   0
 number of shells is                        676
 number of basis is                        2360
 number of cartesian basis is              2360
 number of contracted shell pairs         36535
 number of primitive shell pairs         111633
 maxK2 (contraction) of shell pair           36
 max number of K2 of shell pair               1
 max number of CS2 of shell pair           7059
 max number of PS2 of shell pair          34098
 mem total for path MDJ                 1474504
 -------------------------------------------------------
 Smallest overlap matrix eigenvalue = 2.54E-04

 Scale SEOQF with 1.000000e-02/1.000000e-02/1.000000e-02

 Standard Electronic Orientation quadrupole field applied
 Nucleus-field energy     =     0.0000001350 hartrees
 Guess from superposition of atomic densities
 Warning:  Energy on first SCF cycle will be non-variational
 A restricted hybrid HF-DFT SCF calculation will be
 performed using Pulay DIIS extrapolation
 Exchange:     0.2000 Hartree-Fock + 0.0800 Slater + 0.7200 B88
 Correlation:  0.1900 VWN1RPA + 0.8100 LYP
 Using SG-1 standard quadrature grid
 SCF converges when DIIS error is below 1.0E-05
 using 16 threads for integral computing 
 -------------------------------------------------------
 OpenMP BLAS3 based DFT computing Module                
 Release: version 1.0, May 2013, Q-Chem Inc. Pittsburgh 
 -------------------------------------------------------
 ---------------------------------------
  Cycle       Energy         DIIS Error
 ---------------------------------------
    1   -5857.9589662853      1.82E-02
    2   -5803.1359079501      1.29E-03
    3   -5802.3253886264      1.81E-03
    4   -5804.0185365824      6.25E-04
    5   -5804.2265814608      2.67E-04
    6   -5804.2671121120      1.30E-04
    7   -5804.2786604549      4.78E-05
    8   -5804.2798422230      2.67E-05
    9   -5804.2803508759      9.95E-06 Convergence criterion met
 ---------------------------------------
 SCF time:  CPU 7959.86 s  wall 817.85 s
 SCF   energy in the final basis set = -5804.2803508759
 Total energy in the final basis set = -5804.2803508759
 
 --------------------------------------------------------------
 
                    Orbital Energies (a.u.)
 --------------------------------------------------------------
 
 Alpha MOs
 -- Occupied --
-19.190 -19.187 -19.148 -19.140 -10.329 -10.321 -10.243 -10.243
-10.242 -10.241 -10.239 -10.236 -10.236 -10.233 -10.229 -10.229
-10.228 -10.227 -10.224 -10.224 -10.223 -10.222 -10.221 -10.221
-10.221 -10.221 -10.221 -10.220 -10.220 -10.220 -10.220 -10.220
-10.220 -10.220 -10.220 -10.220 -10.219 -10.219 -10.219 -10.219
-10.219 -10.218 -10.218 -10.218 -10.218 -10.218 -10.218 -10.218
-10.217 -10.217 -10.216 -10.216 -10.216 -10.216 -10.216 -10.216
-10.215 -10.215 -10.215 -10.215 -10.215 -10.215 -10.215 -10.215
-10.215 -10.215 -10.215 -10.215 -10.215 -10.214 -10.214 -10.214
-10.214 -10.214 -10.214 -10.214 -10.214 -10.214 -10.214 -10.214
-10.214 -10.214 -10.214 -10.214 -10.213 -10.213 -10.213 -10.213
-10.213 -10.213 -10.213 -10.213 -10.213 -10.213 -10.212 -10.212
-10.212 -10.212 -10.212 -10.212 -10.212 -10.212 -10.212 -10.212
-10.211 -10.211 -10.211 -10.211 -10.211 -10.211 -10.210 -10.210
-10.210 -10.210 -10.210 -10.210 -10.210 -10.210 -10.210 -10.210
-10.209 -10.209 -10.209 -10.209 -10.209 -10.209 -10.208 -10.208
-10.208 -10.208 -10.208 -10.207 -10.207 -10.207 -10.207 -10.207
-10.206 -10.206 -10.206 -10.204 -10.204 -10.197 -10.197 -10.196
-10.196 -10.195 -10.195 -10.195  -1.081  -1.070  -1.000  -0.999
 -0.984  -0.981  -0.966  -0.964  -0.962  -0.961  -0.960  -0.959
 -0.936  -0.931  -0.927  -0.925  -0.924  -0.924  -0.923  -0.921
 -0.919  -0.919  -0.897  -0.895  -0.890  -0.889  -0.884  -0.884
 -0.875  -0.871  -0.854  -0.844  -0.843  -0.841  -0.840  -0.837
 -0.836  -0.834  -0.827  -0.819  -0.814  -0.803  -0.798  -0.798
 -0.797  -0.794  -0.793  -0.792  -0.789  -0.789  -0.785  -0.782
 -0.772  -0.771  -0.769  -0.768  -0.765  -0.765  -0.762  -0.760
 -0.749  -0.748  -0.741  -0.736  -0.731  -0.730  -0.717  -0.715
 -0.715  -0.713  -0.713  -0.711  -0.710  -0.709  -0.709  -0.708
 -0.707  -0.706  -0.706  -0.704  -0.704  -0.697  -0.674  -0.672
 -0.659  -0.658  -0.656  -0.655  -0.645  -0.644  -0.632  -0.632
 -0.626  -0.626  -0.624  -0.624  -0.620  -0.620  -0.620  -0.617
 -0.616  -0.616  -0.614  -0.612  -0.610  -0.610  -0.607  -0.607
 -0.605  -0.605  -0.602  -0.602  -0.566  -0.564  -0.562  -0.562
 -0.560  -0.559  -0.558  -0.557  -0.555  -0.555  -0.553  -0.552
 -0.535  -0.534  -0.533  -0.532  -0.530  -0.526  -0.525  -0.524
 -0.523  -0.522  -0.521  -0.520  -0.518  -0.516  -0.513  -0.513
 -0.505  -0.505  -0.500  -0.494  -0.493  -0.491  -0.489  -0.488
 -0.485  -0.483  -0.481  -0.480  -0.479  -0.478  -0.475  -0.473
 -0.472  -0.471  -0.470  -0.469  -0.468  -0.466  -0.465  -0.465
 -0.463  -0.462  -0.462  -0.461  -0.460  -0.460  -0.459  -0.457
 -0.455  -0.452  -0.450  -0.450  -0.447  -0.446  -0.444  -0.443
 -0.443  -0.440  -0.440  -0.439  -0.436  -0.436  -0.434  -0.432
 -0.431  -0.431  -0.429  -0.429  -0.427  -0.426  -0.425  -0.423
 -0.423  -0.422  -0.422  -0.420  -0.419  -0.419  -0.419  -0.417
 -0.417  -0.416  -0.416  -0.415  -0.413  -0.413  -0.412  -0.412
 -0.412  -0.410  -0.407  -0.406  -0.403  -0.398  -0.397  -0.396
 -0.394  -0.393  -0.393  -0.392  -0.387  -0.385  -0.385  -0.384
 -0.381  -0.374  -0.374  -0.372  -0.368  -0.367  -0.366  -0.365
 -0.363  -0.363  -0.362  -0.362  -0.360  -0.359  -0.358  -0.357
 -0.357  -0.356  -0.354  -0.353  -0.353  -0.352  -0.351  -0.350
 -0.349  -0.347  -0.347  -0.347  -0.346  -0.345  -0.344  -0.344
 -0.342  -0.341  -0.339  -0.338  -0.338  -0.337  -0.335  -0.333
 -0.333  -0.331  -0.330  -0.329  -0.328  -0.327  -0.325  -0.323
 -0.310  -0.309  -0.294  -0.292  -0.288  -0.286  -0.275  -0.274
 -0.271  -0.269  -0.267  -0.267  -0.266  -0.265  -0.264  -0.263
 -0.262  -0.261  -0.260  -0.259  -0.256  -0.255  -0.255  -0.253
 -0.248  -0.246  -0.246  -0.243  -0.222  -0.218  -0.213  -0.210
 -0.209  -0.207  -0.207  -0.205  -0.201  -0.198
 -- Virtual --
 -0.123  -0.120  -0.118  -0.117  -0.109  -0.109  -0.079  -0.078
 -0.073  -0.071  -0.061  -0.058  -0.052  -0.051  -0.027  -0.024
 -0.023  -0.021  -0.018  -0.017  -0.016  -0.016  -0.015  -0.014
 -0.013  -0.012  -0.011  -0.009  -0.009  -0.007  -0.003  -0.002
  0.006   0.006   0.031   0.037   0.038   0.045   0.047   0.048
  0.050   0.054   0.055   0.057   0.061   0.065   0.066   0.068
  0.070   0.072   0.079   0.083   0.083   0.086   0.089   0.089
  0.095   0.096   0.097   0.098   0.099   0.101   0.102   0.104
  0.110   0.110   0.111   0.112   0.116   0.116   0.120   0.120
  0.121   0.123   0.123   0.125   0.127   0.132   0.136   0.137
  0.138   0.139   0.144   0.145   0.147   0.152   0.154   0.158
  0.158   0.159   0.161   0.162   0.162   0.164   0.165   0.165
  0.167   0.171   0.173   0.174   0.174   0.176   0.177   0.180
  0.181   0.185   0.185   0.186   0.189   0.189   0.189   0.192
  0.193   0.195   0.196   0.198   0.199   0.200   0.204   0.205
  0.207   0.208   0.210   0.211   0.215   0.215   0.217   0.218
  0.219   0.221   0.222   0.224   0.224   0.225   0.226   0.228
  0.229   0.230   0.231   0.232   0.233   0.237   0.238   0.238
  0.240   0.242   0.244   0.245   0.247   0.248   0.252   0.256
  0.261   0.262   0.265   0.271   0.272   0.273   0.276   0.279
  0.280   0.286   0.288   0.289   0.291   0.297   0.297   0.300
  0.306   0.308   0.312   0.312   0.313   0.317   0.318   0.318
  0.321   0.323   0.323   0.324   0.326   0.327   0.328   0.330
  0.331   0.332   0.335   0.336   0.338   0.343   0.345   0.346
  0.347   0.351   0.352   0.364   0.368   0.372   0.381   0.388
  0.396   0.399   0.399   0.400   0.401   0.403   0.407   0.409
  0.411   0.412   0.416   0.417   0.418   0.420   0.423   0.427
  0.428   0.429   0.432   0.435   0.438   0.440   0.445   0.446
  0.447   0.449   0.451   0.456   0.459   0.460   0.461   0.464
  0.467   0.469   0.471   0.472   0.474   0.475   0.477   0.478
  0.478   0.479   0.480   0.481   0.483   0.485   0.485   0.486
  0.488   0.489   0.490   0.491   0.492   0.493   0.493   0.494
  0.495   0.497   0.497   0.499   0.501   0.502   0.503   0.504
  0.505   0.506   0.507   0.509   0.509   0.511   0.511   0.512
  0.513   0.513   0.514   0.516   0.516   0.518   0.518   0.519
  0.519   0.520   0.521   0.523   0.523   0.524   0.525   0.526
  0.527   0.527   0.528   0.529   0.530   0.531   0.531   0.531
  0.532   0.533   0.535   0.535   0.536   0.537   0.537   0.540
  0.540   0.541   0.541   0.542   0.543   0.544   0.544   0.545
  0.546   0.546   0.547   0.548   0.549   0.550   0.550   0.551
  0.552   0.553   0.553   0.554   0.555   0.555   0.556   0.557
  0.558   0.559   0.559   0.559   0.561   0.561   0.562   0.563
  0.563   0.564   0.565   0.566   0.568   0.568   0.569   0.569
  0.571   0.572   0.573   0.573   0.573   0.575   0.576   0.576
  0.577   0.578   0.579   0.579   0.580   0.581   0.582   0.584
  0.585   0.585   0.586   0.588   0.588   0.589   0.590   0.591
  0.591   0.593   0.593   0.593   0.594   0.595   0.596   0.597
  0.598   0.599   0.600   0.601   0.601   0.603   0.603   0.605
  0.606   0.608   0.609   0.610   0.612   0.613   0.614   0.614
  0.615   0.617   0.617   0.619   0.620   0.620   0.622   0.623
  0.624   0.627   0.628   0.630   0.631   0.631   0.632   0.632
  0.633   0.634   0.634   0.635   0.637   0.637   0.638   0.638
  0.639   0.641   0.642   0.643   0.645   0.646   0.647   0.647
  0.648   0.650   0.651   0.653   0.654   0.654   0.655   0.656
  0.657   0.658   0.659   0.659   0.660   0.661   0.662   0.663
  0.664   0.665   0.665   0.666   0.667   0.668   0.669   0.669
  0.671   0.672   0.672   0.673   0.674   0.675   0.676   0.676
  0.678   0.679   0.681   0.683   0.683   0.684   0.687   0.687
  0.688   0.688   0.690   0.691   0.692   0.693   0.694   0.695
  0.695   0.697   0.697   0.698   0.700   0.701   0.702   0.704
  0.705   0.706   0.708   0.709   0.709   0.710   0.712   0.714
  0.715   0.716   0.717   0.718   0.720   0.721   0.722   0.724
  0.725   0.726   0.727   0.728   0.729   0.730   0.730   0.732
  0.732   0.734   0.735   0.737   0.738   0.739   0.742   0.744
  0.745   0.747   0.748   0.750   0.751   0.753   0.755   0.755
  0.759   0.760   0.760   0.761   0.762   0.764   0.765   0.767
  0.767   0.768   0.770   0.770   0.772   0.772   0.773   0.774
  0.775   0.777   0.778   0.779   0.780   0.780   0.783   0.784
  0.785   0.788   0.789   0.790   0.792   0.793   0.794   0.795
  0.796   0.797   0.799   0.800   0.801   0.803   0.804   0.804
  0.806   0.808   0.808   0.809   0.810   0.811   0.811   0.812
  0.812   0.813   0.813   0.814   0.815   0.817   0.818   0.819
  0.819   0.820   0.820   0.821   0.822   0.822   0.823   0.823
  0.825   0.826   0.827   0.829   0.829   0.830   0.833   0.834
  0.836   0.836   0.837   0.840   0.841   0.841   0.844   0.845
  0.848   0.850   0.852   0.853   0.855   0.857   0.862   0.864
  0.864   0.866   0.869   0.870   0.874   0.878   0.882   0.889
  0.892   0.895   0.899   0.900   0.901   0.903   0.906   0.907
  0.910   0.913   0.914   0.915   0.917   0.918   0.921   0.922
  0.924   0.925   0.926   0.927   0.929   0.931   0.932   0.936
  0.936   0.938   0.941   0.941   0.942   0.945   0.947   0.948
  0.950   0.952   0.955   0.957   0.959   0.963   0.966   0.969
  0.972   0.974   0.978   0.978   0.981   0.982   0.985   0.986
  0.989   0.990   0.991   0.994   0.996   0.997   1.000   1.002
  1.003   1.006   1.008   1.009   1.011   1.012   1.013   1.013
  1.015   1.018   1.021   1.022   1.025   1.028   1.029   1.032
  1.033   1.035   1.035   1.038   1.039   1.040   1.041   1.042
  1.044   1.047   1.048   1.051   1.053   1.055   1.057   1.060
  1.061   1.062   1.063   1.064   1.065   1.066   1.067   1.069
  1.072   1.073   1.074   1.076   1.077   1.078   1.079   1.080
  1.084   1.085   1.087   1.089   1.089   1.092   1.093   1.093
  1.094   1.096   1.097   1.099   1.100   1.101   1.105   1.107
  1.109   1.112   1.113   1.114   1.116   1.117   1.120   1.123
  1.126   1.129   1.131   1.132   1.137   1.138   1.140   1.142
  1.143   1.145   1.149   1.149   1.151   1.154   1.155   1.156
  1.159   1.162   1.163   1.164   1.164   1.166   1.168   1.171
  1.173   1.173   1.176   1.176   1.178   1.179   1.182   1.183
  1.185   1.188   1.189   1.189   1.191   1.194   1.197   1.198
  1.201   1.202   1.202   1.203   1.205   1.209   1.211   1.214
  1.216   1.219   1.222   1.225   1.231   1.234   1.237   1.239
  1.241   1.246   1.248   1.250   1.252   1.253   1.256   1.259
  1.261   1.263   1.264   1.264   1.266   1.269   1.269   1.272
  1.274   1.276   1.277   1.279   1.281   1.284   1.286   1.286
  1.290   1.293   1.295   1.299   1.301   1.302   1.304   1.311
  1.313   1.314   1.316   1.318   1.320   1.323   1.325   1.328
  1.329   1.332   1.334   1.335   1.337   1.339   1.342   1.345
  1.348   1.349   1.351   1.354   1.357   1.359   1.363   1.363
  1.365   1.369   1.372   1.374   1.377   1.377   1.379   1.385
  1.385   1.387   1.387   1.391   1.394   1.398   1.399   1.401
  1.405   1.407   1.409   1.414   1.418   1.420   1.424   1.426
  1.428   1.430   1.432   1.434   1.436   1.439   1.442   1.443
  1.446   1.449   1.451   1.453   1.455   1.460   1.463   1.464
  1.467   1.467   1.469   1.471   1.472   1.473   1.475   1.476
  1.478   1.481   1.482   1.487   1.488   1.489   1.492   1.493
  1.497   1.499   1.504   1.509   1.511   1.511   1.514   1.516
  1.519   1.520   1.522   1.524   1.528   1.531   1.533   1.535
  1.539   1.542   1.544   1.546   1.548   1.551   1.553   1.554
  1.556   1.560   1.562   1.564   1.566   1.568   1.570   1.573
  1.576   1.578   1.579   1.580   1.582   1.583   1.585   1.587
  1.589   1.596   1.599   1.599   1.602   1.605   1.609   1.609
  1.614   1.620   1.620   1.623   1.631   1.632   1.640   1.643
  1.646   1.650   1.653   1.659   1.659   1.662   1.664   1.665
  1.670   1.676   1.679   1.680   1.687   1.692   1.695   1.696
  1.697   1.699   1.702   1.704   1.705   1.708   1.709   1.713
  1.713   1.716   1.721   1.724   1.726   1.726   1.728   1.728
  1.731   1.732   1.734   1.736   1.737   1.739   1.743   1.744
  1.746   1.748   1.748   1.750   1.751   1.753   1.753   1.755
  1.756   1.758   1.759   1.761   1.762   1.763   1.764   1.766
  1.768   1.769   1.770   1.771   1.773   1.773   1.774   1.775
  1.777   1.778   1.779   1.779   1.783   1.783   1.784   1.786
  1.787   1.789   1.789   1.791   1.792   1.792   1.795   1.796
  1.796   1.798   1.799   1.801   1.801   1.804   1.805   1.807
  1.809   1.809   1.812   1.812   1.814   1.816   1.817   1.819
  1.821   1.822   1.823   1.826   1.833   1.834   1.836   1.838
  1.840   1.841   1.843   1.848   1.850   1.851   1.852   1.854
  1.855   1.856   1.858   1.862   1.865   1.867   1.868   1.869
  1.872   1.873   1.873   1.875   1.877   1.878   1.880   1.882
  1.884   1.888   1.889   1.893   1.894   1.896   1.897   1.900
  1.901   1.904   1.906   1.908   1.910   1.912   1.915   1.916
  1.919   1.920   1.923   1.923   1.926   1.928   1.932   1.933
  1.934   1.938   1.939   1.939   1.945   1.948   1.949   1.951
  1.954   1.955   1.958   1.959   1.960   1.964   1.968   1.969
  1.969   1.972   1.974   1.974   1.975   1.977   1.979   1.980
  1.982   1.986   1.986   1.987   1.988   1.989   1.991   1.993
  1.995   1.997   1.999   2.000   2.000   2.001   2.003   2.004
  2.004   2.007   2.008   2.011   2.011   2.012   2.014   2.015
  2.016   2.017   2.019   2.020   2.021   2.022   2.023   2.024
  2.025   2.026   2.026   2.028   2.028   2.030   2.031   2.032
  2.033   2.034   2.035   2.037   2.037   2.038   2.041   2.043
  2.044   2.044   2.046   2.047   2.048   2.048   2.051   2.051
  2.054   2.055   2.055   2.057   2.058   2.059   2.060   2.061
  2.062   2.063   2.065   2.068   2.070   2.071   2.071   2.072
  2.074   2.074   2.080   2.081   2.082   2.083   2.084   2.085
  2.086   2.087   2.090   2.093   2.094   2.096   2.097   2.099
  2.100   2.103   2.106   2.111   2.114   2.115   2.119   2.122
  2.123   2.125   2.128   2.129   2.130   2.132   2.136   2.141
  2.144   2.146   2.148   2.153   2.154   2.155   2.158   2.163
  2.166   2.174   2.176   2.178   2.187   2.189   2.193   2.197
  2.198   2.201   2.203   2.208   2.210   2.213   2.215   2.220
  2.222   2.224   2.229   2.233   2.236   2.239   2.243   2.243
  2.245   2.247   2.249   2.251   2.254   2.256   2.257   2.261
  2.265   2.266   2.270   2.272   2.274   2.276   2.280   2.282
  2.284   2.286   2.287   2.289   2.292   2.296   2.297   2.298
  2.298   2.302   2.302   2.305   2.306   2.312   2.314   2.315
  2.317   2.319   2.320   2.322   2.327   2.329   2.331   2.334
  2.341   2.343   2.345   2.346   2.347   2.348   2.350   2.350
  2.352   2.355   2.356   2.358   2.362   2.365   2.367   2.369
  2.371   2.371   2.372   2.374   2.376   2.378   2.379   2.381
  2.382   2.382   2.384   2.386   2.386   2.388   2.391   2.393
  2.394   2.396   2.397   2.401   2.401   2.403   2.405   2.407
  2.408   2.409   2.410   2.413   2.414   2.414   2.417   2.419
  2.422   2.423   2.427   2.431   2.433   2.435   2.439   2.443
  2.444   2.445   2.447   2.452   2.453   2.456   2.459   2.461
  2.463   2.465   2.466   2.468   2.469   2.471   2.472   2.473
  2.476   2.477   2.477   2.480   2.484   2.486   2.488   2.489
  2.490   2.492   2.494   2.496   2.498   2.499   2.501   2.503
  2.505   2.506   2.510   2.512   2.512   2.513   2.515   2.519
  2.522   2.525   2.526   2.528   2.529   2.531   2.534   2.535
  2.537   2.540   2.543   2.544   2.552   2.554   2.557   2.558
  2.562   2.562   2.566   2.570   2.573   2.575   2.577   2.581
  2.584   2.586   2.587   2.588   2.591   2.595   2.597   2.600
  2.602   2.603   2.605   2.607   2.609   2.611   2.612   2.613
  2.615   2.617   2.618   2.622   2.623   2.624   2.625   2.626
  2.628   2.632   2.633   2.636   2.638   2.639   2.641   2.641
  2.644   2.647   2.647   2.649   2.651   2.653   2.654   2.656
  2.658   2.661   2.661   2.663   2.663   2.664   2.667   2.669
  2.669   2.672   2.675   2.677   2.679   2.680   2.681   2.683
  2.684   2.685   2.690   2.691   2.697   2.700   2.700   2.703
  2.705   2.707   2.710   2.712   2.714   2.719   2.722   2.724
  2.726   2.728   2.729   2.731   2.735   2.738   2.740   2.743
  2.744   2.747   2.748   2.751   2.757   2.758   2.759   2.761
  2.764   2.765   2.766   2.767   2.769   2.771   2.773   2.776
  2.778   2.779   2.782   2.783   2.785   2.787   2.791   2.792
  2.794   2.797   2.800   2.801   2.804   2.814   2.815   2.818
  2.821   2.824   2.826   2.828   2.829   2.830   2.831   2.835
  2.840   2.843   2.848   2.850   2.852   2.855   2.857   2.859
  2.862   2.864   2.864   2.866   2.869   2.871   2.874   2.875
  2.877   2.879   2.880   2.883   2.884   2.886   2.887   2.892
  2.893   2.894   2.897   2.899   2.899   2.900   2.903   2.904
  2.906   2.909   2.911   2.911   2.912   2.915   2.915   2.917
  2.920   2.922   2.923   2.925   2.925   2.928   2.929   2.932
  2.933   2.936   2.937   2.937   2.941   2.943   2.946   2.948
  2.949   2.951   2.956   2.963   2.964   2.969   2.970   2.972
  2.976   2.977   2.979   2.987   2.988   2.991   2.996   2.998
  3.003   3.007   3.010   3.012   3.013   3.017   3.019   3.024
  3.026   3.027   3.031   3.032   3.032   3.036   3.038   3.040
  3.041   3.044   3.047   3.049   3.049   3.053   3.058   3.059
  3.063   3.066   3.072   3.074   3.080   3.086   3.091   3.095
  3.097   3.110   3.113   3.115   3.117   3.125   3.127   3.134
  3.151   3.154   3.156   3.164   3.171   3.175   3.180   3.183
  3.185   3.187   3.199   3.203   3.228   3.230   3.232   3.235
  3.236   3.243   3.254   3.255   3.259   3.269   3.273   3.274
  3.290   3.293   3.298   3.306   3.307   3.312   3.313   3.318
  3.323   3.329   3.337   3.347   3.350   3.353   3.365   3.366
  3.386   3.394   3.402   3.413   3.419   3.429   3.430   3.443
  3.453   3.454   3.458   3.465   3.472   3.478   3.480   3.485
  3.490   3.494   3.497   3.505   3.508   3.512   3.537   3.539
  3.542   3.555   3.566   3.569   3.572   3.575   3.594   3.598
  3.607   3.613   3.681   3.684   3.796   3.862   3.950   4.000
  4.071   4.073   4.078   4.080   4.086   4.088   4.092   4.094
  4.097   4.098   4.103   4.105   4.110   4.112   4.113   4.119
  4.122   4.124   4.129   4.130   4.135   4.141   4.146   4.149
  4.150   4.152   4.157   4.161   4.165   4.167   4.168   4.172
  4.174   4.179   4.181   4.195   4.203   4.211   4.217   4.236
  4.240   4.242   4.244   4.246   4.247   4.254   4.254   4.257
  4.259   4.266   4.269   4.272   4.280   4.285   4.290   4.291
  4.294   4.298   4.300   4.316   4.370   4.377   4.386   4.390
  4.394   4.396   4.399   4.402   4.406   4.408   4.409   4.412
  4.414   4.420   4.422   4.431   4.443   4.446   4.451   4.476
  4.477   4.478   4.494   4.499   4.532   4.534   4.545   4.546
  4.554   4.561   4.607   4.613   4.622   4.624   4.628   4.630
  4.640   4.646   4.668   4.679   4.684   4.689   4.695   4.697
  4.698   4.699   4.709   4.714   4.735   4.753   4.769   4.799
  4.813   4.845   4.856   4.863   4.872   4.877   4.882   4.887
  4.906   4.907   4.954   4.958   4.961   4.971   4.974   4.983
  4.988   4.995   4.998   5.007   5.162   5.171   5.177   5.180
  5.186   5.197   5.202   5.232   5.314   5.324   5.333   5.341
  5.344   5.358
 --------------------------------------------------------------
 
          Ground-State Mulliken Net Atomic Charges

     Atom                 Charge (a.u.)
  ----------------------------------------
      1 O                    -0.487421
      2 C                    -0.078976
      3 H                     0.133437
      4 H                     0.124055
      5 H                     0.126113
      6 O                    -0.477861
      7 C                     0.603813
      8 C                    -0.261685
      9 H                     0.149258
     10 H                     0.130695
     11 C                    -0.182634
     12 H                     0.114088
     13 H                     0.123776
     14 C                    -0.184999
     15 H                     0.110637
     16 H                     0.100807
     17 C                     0.006470
     18 C                     0.090981
     19 C                    -0.102357
     20 H                     0.085527
     21 C                    -0.097693
     22 H                     0.092967
     23 C                    -0.081819
     24 H                     0.091972
     25 C                    -0.087158
     26 H                     0.092893
     27 C                    -0.110176
     28 H                     0.095098
     29 C                    -0.010997
     30 C                     0.001931
     31 C                    -0.008859
     32 C                    -0.012965
     33 C                     0.007125
     34 C                    -0.006117
     35 C                    -0.024465
     36 C                     0.010138
     37 C                     0.003451
     38 C                    -0.005222
     39 C                    -0.114723
     40 C                     0.014972
     41 C                     0.006921
     42 C                     0.012425
     43 C                     0.005869
     44 C                    -0.025823
     45 C                    -0.072091
     46 C                     0.013045
     47 C                    -0.000243
     48 C                     0.031095
     49 C                     0.007465
     50 C                    -0.013128
     51 C                     0.003960
     52 C                    -0.001585
     53 C                     0.042093
     54 C                    -0.011801
     55 C                    -0.006365
     56 C                    -0.000683
     57 C                     0.009938
     58 C                     0.038118
     59 C                    -0.001143
     60 C                     0.011644
     61 C                    -0.039212
     62 C                    -0.036314
     63 C                    -0.016144
     64 C                    -0.007773
     65 C                     0.000441
     66 C                    -0.013211
     67 C                     0.008956
     68 C                     0.025851
     69 C                    -0.031627
     70 C                     0.055812
     71 C                     0.006007
     72 C                    -0.008448
     73 C                     0.003780
     74 C                    -0.007154
     75 C                    -0.003185
     76 C                     0.010674
     77 C                     0.018196
     78 C                    -0.017762
     79 C                     0.027366
     80 C                    -0.000958
     81 C                    -0.002701
     82 C                    -0.017820
     83 C                    -0.001056
     84 C                    -0.006612
     85 C                     0.005921
     86 C                     0.022020
     87 C                     0.003572
     88 C                    -0.003737
     89 O                    -0.471196
     90 C                    -0.078674
     91 H                     0.119491
     92 H                     0.124070
     93 H                     0.120153
     94 O                    -0.472748
     95 C                     0.574805
     96 C                    -0.258123
     97 H                     0.138131
     98 H                     0.134303
     99 C                    -0.178731
    100 H                     0.108497
    101 H                     0.129426
    102 C                    -0.184409
    103 H                     0.120209
    104 H                     0.121121
    105 C                     0.001886
    106 C                     0.072222
    107 C                    -0.103781
    108 H                     0.093146
    109 C                    -0.090140
    110 H                     0.095787
    111 C                    -0.086752
    112 H                     0.093491
    113 C                    -0.089190
    114 H                     0.093483
    115 C                    -0.111125
    116 H                     0.100226
    117 C                     0.017171
    118 C                    -0.011241
    119 C                    -0.002608
    120 C                     0.009463
    121 C                     0.021635
    122 C                     0.000353
    123 C                     0.050161
    124 C                     0.012985
    125 C                    -0.005512
    126 C                    -0.008884
    127 C                    -0.096433
    128 C                    -0.002570
    129 C                    -0.033601
    130 C                    -0.029619
    131 C                     0.033270
    132 C                    -0.004900
    133 C                    -0.079893
    134 C                     0.015470
    135 C                     0.010209
    136 C                     0.006133
    137 C                     0.001419
    138 C                    -0.022418
    139 C                    -0.012754
    140 C                     0.003986
    141 C                     0.043674
    142 C                    -0.020723
    143 C                     0.004947
    144 C                    -0.023765
    145 C                    -0.008727
    146 C                     0.006706
    147 C                     0.011151
    148 C                     0.031885
    149 C                     0.005096
    150 C                     0.004316
    151 C                    -0.008386
    152 C                     0.007100
    153 C                    -0.016806
    154 C                    -0.003066
    155 C                    -0.019310
    156 C                     0.009375
    157 C                    -0.018103
    158 C                     0.017246
    159 C                     0.045912
    160 C                     0.022393
    161 C                     0.002385
    162 C                     0.001914
    163 C                    -0.023701
    164 C                     0.005936
    165 C                     0.011837
    166 C                    -0.007362
    167 C                    -0.017596
    168 C                    -0.008109
    169 C                     0.019550
    170 C                    -0.007179
    171 C                    -0.005027
    172 C                    -0.026822
    173 C                     0.006142
    174 C                    -0.001975
    175 C                    -0.031845
    176 C                     0.004869
  ----------------------------------------
  Sum of atomic charges =     0.000000

 -----------------------------------------------------------------
                    Cartesian Multipole Moments
 -----------------------------------------------------------------
    Charge (ESU x 10^10)
                 0.0000
    Dipole Moment (Debye)
         X       0.7931      Y       4.4296      Z       2.3185
       Tot       5.0622
    Quadrupole Moments (Debye-Ang)
        XX    -795.0990     XY     -17.8732     YY    -785.7518
        XZ      30.2922     YZ      15.1953     ZZ    -799.2949
    Octopole Moments (Debye-Ang^2)
       XXX     236.6405    XXY     326.6651    XYY    -224.1945
       YYY     564.1581    XXZ     295.5529    XYZ      98.5696
       YYZ      93.1053    XZZ     -63.9881    YZZ     115.1880
       ZZZ      -1.8186
    Hexadecapole Moments (Debye-Ang^3)
      XXXX -185027.0653   XXXY   -2846.0981   XXYY  -35933.5637
      XYYY   -1935.4208   YYYY  -40174.7621   XXXZ    2078.1482
      XXYZ    1732.0065   XYYZ     529.5916   YYYZ     576.7375
      XXZZ  -34990.2721   XYZZ    -260.9701   YYZZ  -11808.7522
      XZZZ    1573.5899   YZZZ     149.4126   ZZZZ  -26685.4764
 -----------------------------------------------------------------
Archival summary:
1\1\mn251\SP\ProcedureUnspecified\6-31G**\428\afmv_a\FriOct1214:06:362018FriOct1214:06:362018\0\\#,ProcedureUnspecified,6-31G**,\\0,1\C\C,1,1.36748\C,2,1.37796,1,108.669\C,2,1.39768,1,122.686,3,148.626,0\C,4,1.40201,2,117.816,1,-6.27015,0\C,5,1.40753,4,105.915,2,-142.558,0\C,6,1.38918,5,109.764,4,-1.17086,0\C,3,1.40965,2,111.055,1,3.07766,0\C,8,1.40643,3,103.756,2,1.61452,0\C,9,1.36729,8,118.382,3,140.83,0\C,10,1.37522,9,123.186,8,-136.243,0\C,11,1.40071,10,116.667,9,-6.78418,0\C,12,1.38783,11,119.241,10,140.515,0\C,13,1.39365,12,111.176,11,-141.856,0\C,14,1.39675,13,106.048,12,-0.836978,0\C,13,1.40012,12,118.699,11,6.52392,0\C,16,1.35793,13,119.418,12,-138.691,0\C,17,1.40594,16,121.075,13,-5.95991,0\C,18,1.38583,17,119.174,16,4.17853,0\C,17,1.41145,16,109.887,13,140.547,0\C,20,1.37433,17,106.764,16,-3.65067,0\C,21,1.35601,20,109.952,17,6.62645,0\C,21,1.40065,20,120.578,17,-146.099,0\C,23,1.36125,21,119.672,20,4.73172,0\C,24,1.37971,23,121.002,21,-4.46338,0\C,25,1.3565,24,119.87,23,4.01761,0\C,22,1.40287,21,119.296,20,-147.251,0\C,26,1.40583,25,111.334,24,141.218,0\C,28,1.40689,26,105.941,25,-2.65174,0\C,29,1.39878,28,116.929,26,-141.166,0\C,30,1.39174,29,124.518,28,1.72312,0\C,31,1.38152,30,116.518,29,-0.986755,0\C,32,1.37282,31,122.22,30,-1.87306,0\C,29,1.40738,28,108.196,26,1.61062,0\C,12,1.41294,11,122.783,10,2.2367,0\C,7,1.41456,6,118.541,5,137.386,0\C,24,1.41495,23,105.946,21,139.817,0\C,37,1.3743,24,108.504,23,1.29162,0\C,38,1.3725,37,109.385,24,1.47422,0\C,39,1.41569,38,119.418,37,-140.083,0\C,40,1.38764,39,120.364,38,-0.404938,0\C,37,1.41591,24,119.068,23,-146.779,0\C,42,1.39579,37,120.102,24,6.10145,0\C,41,1.41668,40,119.77,39,-3.8275,0\C,44,1.38085,41,119.836,40,-1.55622,0\C,44,1.41152,41,119.523,40,146.501,0\C,46,1.39171,44,105.003,41,-144.782,0\C,47,1.41137,46,118.843,44,133.841,0\C,48,1.41039,47,119.288,46,5.4736,0\C,48,1.41134,47,125.519,46,-138.073,0\C,50,1.39234,48,120.637,47,6.0759,0\C,51,1.39778,50,122.079,48,132.248,0\C,4,1.4172,2,119.369,1,-145.681,0\C,36,1.4182,7,124.1,6,-137.426,0\C,54,1.38274,36,108.008,7,146.909,0\C,54,1.38403,36,118.985,7,6.3685,0\C,19,1.41981,18,110.109,17,140.499,0\C,56,1.42634,54,120.142,36,-3.87938,0\C,47,1.47774,46,111.878,44,-7.87256,0\C,42,1.49444,37,118.601,24,149.084,0\C,59,1.52195,47,125.795,46,-147.08,0\C,61,1.49003,59,119.276,47,4.22212,0\C,62,1.43785,61,119.954,59,-117.629,0\H,63,1.08658,62,119.172,61,-1.03417,0\C,63,1.39324,62,122.351,61,170.685,0\H,65,1.08583,63,118.716,62,171.503,0\C,65,1.44562,63,118.588,62,3.4394,0\H,67,1.08588,65,122.126,63,176.132,0\C,67,1.40875,65,120.66,63,-8.38201,0\H,69,1.08596,67,118.048,65,-179.258,0\C,69,1.45501,67,121.173,65,10.2579,0\H,71,1.08583,69,123.027,67,173.828,0\C,61,1.58966,59,113.636,47,137.409,0\H,73,1.09712,61,107.442,59,-55.7266,0\H,73,1.09718,61,114.899,59,57.0872,0\C,73,1.49783,61,113.632,59,179.092,0\H,76,1.09646,73,114.436,61,-47.2207,0\H,76,1.09648,73,117.423,61,69.8658,0\C,76,1.48407,73,116.558,61,-167.186,0\H,79,1.09651,76,109.629,73,-157.777,0\H,79,1.09663,76,117.878,73,71.6619,0\C,79,1.55781,76,110.801,73,-48.0563,0\O,82,1.23732,79,128.641,76,120.716,0\O,82,1.40398,79,111.741,76,-66.2021,0\C,84,1.42417,82,120.255,79,175.739,0\H,85,1.09701,84,114.141,82,-46.8808,0\H,85,1.09712,84,108.282,82,-169.64,0\H,85,1.09754,84,112.976,82,63.4851,0\C,35,3.159,12,130.296,11,-102.498,0\C,89,1.36944,35,90.492,12,70.298,0\C,89,1.3955,35,101.499,12,-170.943,0\C,89,1.41914,35,109.302,12,-41.5759,0\C,92,1.39457,89,105.848,35,97.9234,0\C,93,1.40716,92,109.771,89,2.39853,0\C,92,1.41077,89,121.101,35,-120.71,0\C,95,1.37401,92,122.092,89,-134.454,0\C,96,1.42147,95,109.878,92,138.226,0\C,97,1.36809,96,107.215,95,-0.0764521,0\C,91,1.42171,89,122.449,35,-102.881,0\C,99,1.35327,91,121.833,89,6.08258,0\C,100,1.38531,99,123.266,91,-141.986,0\C,101,1.39109,100,119.201,99,0.947944,0\C,102,1.39242,101,120.152,100,-1.97156,0\C,103,1.40084,102,119.406,101,-0.74207,0\C,104,1.39733,103,118.164,102,136.435,0\C,105,1.39739,104,108.773,103,-143.349,0\C,106,1.35779,105,119.08,104,144.208,0\C,103,1.41227,102,109.598,101,146.617,0\C,108,1.413,103,109.563,102,0.0119189,0\C,109,1.39756,108,121.822,103,-137.961,0\C,110,1.40122,109,120.37,108,-5.69267,0\C,111,1.39548,110,108.265,109,137.013,0\C,112,1.34703,111,110.478,110,3.69757,0\C,112,1.38978,111,125.139,110,-142.545,0\C,113,1.39763,112,122.646,111,-152.174,0\C,115,1.38807,113,120.828,112,7.68712,0\C,116,1.33701,115,111.253,113,142.124,0\C,111,1.40291,110,118.296,109,6.18409,0\C,115,1.40621,113,117.254,112,143.469,0\C,119,1.3865,115,117.536,113,-4.34164,0\C,120,1.35801,119,123.501,115,7.34685,0\C,121,1.34635,120,121.081,119,-2.39972,0\C,120,1.38669,119,118.519,115,-137.714,0\C,121,1.3987,120,106.167,119,-145.643,0\C,124,1.39891,121,110.44,120,0.345109,0\C,118,1.40838,111,121.984,110,-6.55499,0\C,126,1.37716,118,109.846,111,143.96,0\C,127,1.39949,126,109.474,118,4.71875,0\C,128,1.39714,127,105.08,126,-2.87519,0\C,114,1.42048,112,126.02,111,143.526,0\C,130,1.38383,114,111.975,112,-141.477,0\C,131,1.39124,130,106.618,114,0.746043,0\C,132,1.41783,131,108.515,130,-3.89145,0\C,109,1.42123,108,104.347,103,-3.8534,0\C,123,1.42133,120,124.527,119,2.63232,0\C,125,1.42189,124,121.9,121,147.408,0\C,136,1.41408,125,116.132,124,-134.604,0\C,137,1.38414,136,108.276,125,139.812,0\C,137,1.39169,136,120.104,125,-12.2841,0\C,139,1.39756,137,117.242,136,144.302,0\C,140,1.39015,139,110.331,137,-141.383,0\C,141,1.39613,140,120.019,139,138.385,0\C,142,1.3898,141,120.883,140,7.03824,0\C,143,1.40001,142,106.76,141,-147.072,0\C,144,1.39825,143,109.27,142,-2.72405,0\C,145,1.37885,144,108.843,143,2.40892,0\C,117,1.4761,116,110.678,115,4.18455,0\C,141,1.47865,140,108.823,139,-7.69146,0\C,148,1.49302,141,124.057,140,-147.665,0\C,149,1.50745,148,122.026,141,1.86056,0\C,150,1.41132,149,122.717,148,62.5845,0\H,151,1.08575,150,113.177,149,-6.36009,0\C,151,1.39427,150,121.627,149,171.544,0\H,153,1.0858,151,114.754,150,167.437,0\C,153,1.39565,151,119.793,150,6.82347,0\H,155,1.08612,153,116.728,151,168.019,0\C,155,1.38483,153,119.795,151,-8.72544,0\H,157,1.08564,155,121.196,153,179.079,0\C,157,1.40161,155,119.995,153,7.05609,0\H,159,1.08665,157,114.904,155,167.59,0\C,149,1.56679,148,120.838,141,149.632,0\H,161,1.09628,149,115.418,148,-98.3247,0\H,161,1.09691,149,106.171,148,20.3356,0\C,161,1.57671,149,114.563,148,135.199,0\H,164,1.09661,161,106.813,149,77.4183,0\H,164,1.09738,161,111.98,149,-43.0817,0\C,164,1.56411,161,111.896,149,-166.114,0\H,167,1.09681,164,102.283,161,78.2922,0\H,167,1.09728,164,107.88,161,-40.1029,0\C,167,1.49247,164,115.226,161,-160.545,0\O,170,1.26326,167,124.803,164,-18.9132,0\O,170,1.42718,167,108.416,164,168.775,0\C,172,1.43844,170,118.4,167,-174.583,0\H,173,1.09606,172,104.776,170,68.0572,0\H,173,1.0976,172,111.504,170,-168.549,0\H,173,1.0976,172,108.105,170,-47.3973,0\\\@

 Total job time:  833.25s(wall), 7986.57s(cpu) 
 Fri Oct 12 14:06:36 2018

        *************************************************************
        *                                                           *
        *  Thank you very much for using Q-Chem.  Have a nice day.  *
        *                                                           *
        *************************************************************


