
Running Job 1 of 1 ./9/25.qcin
qchem ./9/25.qcin_31750.0 /tmpu/cab_g/afmv_a/scratch_qchem/qchem31750/ 1
/tmpu/appuserlic/qchem4.4/serial-multicore/exe/qcprog.exe_s ./9/25.qcin_31750.0 /tmpu/cab_g/afmv_a/scratch_qchem/qchem31750/
Check license passed

                  Welcome to Q-Chem
     A Quantum Leap Into The Future Of Chemistry


 Q-Chem 4.4, Q-Chem, Inc., Pleasanton, CA (2016)

 Y. Shao,  Z. Gan,  E. Epifanovsky,  A. T. B. Gilbert,  M. Wormit,  
 J. Kussmann,  A. W. Lange,  A. Behn,  J. Deng,  X. Feng,  D. Ghosh,  
 M. Goldey,  P. R. Horn,  L. D. Jacobson,  I. Kaliman,  F. Rob,  
 R. Z. Khaliullin,  T. Kus,  A. Landau,  J. Liu,  E. I. Proynov,  Y. M. Rhee,  
 R. M. Richard,  M. A. Rohrdanz,  R. P. Steele,  E. J. Sundstrom,  
 H. L. Woodcock III,  P. M. Zimmerman,  D. Zuev,  B. Albrecht,  E. Alguire,  
 B. Austin,  S. A. Baeppler,  G. J. O. Beran,  Y. A. Bernard,  E. Berquist,  
 K. Brandhorst,  K. B. Bravaya,  S. T. Brown,  D. Casanova,  C.-M. Chang,  
 Y. Chen,  S. H. Chien,  K. D. Closser,  M. P. Coons,  D. L. Crittenden,  
 S. Dasgupta,  M. Diedenhofen,  R. A. DiStasio Jr.,  H. Do,  A. D. Dutoi,  
 R. G. Edgar,  P.-T. Fang,  S. Fatehi,  Q. Feng,  L. Fusti-Molnar,  
 A. Ghysels,  A. Golubeva-Zadorozhnaya,  J. Gomes,  A. Gunina,  
 M. W. D. Hanson-Heine,  P. H. P. Harbach,  A. W. Hauser,  J. E. Herr,  
 E. G. Hohenstein,  Z. C. Holden,  K. Hui,  T.-C. Jagau,  H. Ji,  B. Kaduk,  
 K. Khistyaev,  Jaehoon Kim,  Jihan Kim,  R. A. King,  P. Klunzinger,  
 K. Koh,  D. Kosenkov,  T. Kowalczyk,  C. M. Krauter,  A. Kunitsa,  
 K. U. Lao,  A. Laurent,  K. V. Lawler,  J. Lee,  D. Lefrancois,  S. Lehtola,  
 S. V. Levchenko,  C. Y. Lin,  Y.-S. Lin,  F. Liu,  E. Livshits,  
 R. C. Lochan,  A. Luenser,  P. Manohar,  S. F. Manzer,  S.-P. Mao,  Y. Mao,  
 N. Mardirossian,  A. V. Marenich,  L. A. Martinez-Martinez,  S. A. Maurer,  
 N. J. Mayhall,  J.-M. Mewes,  A. F. Morrison,  K. Nanda,  T. S. Nguyen-Beck,  
 C. M. Oana,  R. Olivares-Amaya,  D. P. O'Neill,  J. A. Parkhill,  
 T. M. Perrine,  R. Peverati,  P. A. Pieniazek,  F. Plasser,  A. Prociuk,  
 D. R. Rehn,  E. Rosta,  N. J. Russ,  N. Sergueev,  S. M. Sharada,  
 S. Sharma,  D. W. Small,  A. Sodt,  T. Stauch,  T. Stein,  D. Stuck,  
 Y.-C. Su,  A. J. W. Thom,  T. Tsuchimochi,  L. Vogt,  O. Vydrov,  T. Wang,  
 M. A. Watson,  J. Wenzel,  A. White,  C. F. Williams,  V. Vanovschi,  
 K. Yao,  S. Yeganeh,  S. R. Yost,  Z.-Q. You,  I. Y. Zhang,  X. Zhang,  
 Y. Zhao,  B. R. Brooks,  G. K. L. Chan,  D. M. Chipman,  C. J. Cramer,  
 W. A. Goddard III,  M. S. Gordon,  W. J. Hehre,  A. Klamt,  
 H. F. Schaefer III,  M. W. Schmidt,  C. D. Sherrill,  D. G. Truhlar,  
 A. Warshel,  X. Xu,  A. Aspuru-Guzik,  R. Baer,  A. T. Bell,  N. A. Besley,  
 J.-D. Chai,  A. Dreuw,  B. D. Dunietz,  T. R. Furlani,  S. R. Gwaltney,  
 C.-P. Hsu,  Y. Jung,  J. Kong,  D. S. Lambrecht,  W. Liang,  C. Ochsenfeld,  
 V. A. Rassolov,  L. V. Slipchenko,  J. E. Subotnik,  T. Van Voorhis,  
 J. M. Herbert,  A. I. Krylov,  P. M. W. Gill,  M. Head-Gordon

 Contributors to earlier versions of Q-Chem not listed above: 
 R. D. Adamson,  J. Baker,  E. F. C. Byrd,  A. K. Chakraborty,  C.-L. Cheng,  
 H. Dachsel,  R. J. Doerksen,  G. Hawkins,  A. Heyden,  S. Hirata,  
 G. Kedziora,  F. J. Keil,  C. Kelley,  P. P. Korambath,  W. Kurlancheek,  
 A. M. Lee,  M. S. Lee,  D. Liotard,  I. Lotan,  P. E. Maslen,  N. Nair,  
 D. Neuhauser,  R. Olson,  B. Peters,  J. Ritchie,  N. E. Schultz,  
 N. Shenvi,  A. C. Simmonett,  K. S. Thanthiriwatte,  Q. Wu,  W. Zhang

 Please cite Q-Chem as follows:
 Y. Shao et al., Mol. Phys. 113, 184-215 (2015)
 DOI: 10.1080/00268976.2014.952696

 Q-Chem 4.4.2 for Intel X86 Linux

 Parts of Q-Chem use Armadillo 5.200.1 (Boston Tea Smuggler).
 http://arma.sourceforge.net/

 Q-Chem begins on Fri Oct 12 15:04:33 2018  

Host: 
0

     Scratch files written to /tmpu/cab_g/afmv_a/scratch_qchem/qchem31750//
 Dec716 11556_ 22328  22283 4050   
Processing $rem in /tmpu/appuserlic/qchem4.4/serial-multicore/config/preferences.
 MEM_TOTAL  2000 
FILE_GEOM_ORG=        593

Checking the input file for inconsistencies... 	...done.

--------------------------------------------------------------
User input:
--------------------------------------------------------------
$comment
SP
$end

$rem
MEM_STATIC 5000
MEM_TOTAL 20000
JOBTYPE SP
EXCHANGE B3LYP
BASIS 6-31g(d,p)
$end

$molecule
0 1
O         -12.370000      2.359000     -2.887000
C         -10.958000      2.105000     -3.183000
H         -10.650000      1.234000     -2.592000
H         -10.401000      3.035000     -3.012000
H         -10.944000      1.843000     -4.248000
O         -13.020000      0.134000     -2.788000
C         -13.271000      1.354000     -2.784000
C         -14.723000      1.901000     -2.581000
H         -15.387000      1.132000     -2.167000
H         -14.973000      2.109000     -3.629000
C         -14.862000      3.183000     -1.726000
H         -14.383000      3.019000     -0.752000
H         -14.255000      3.989000     -2.157000
C         -16.339000      3.490000     -1.503000
H         -16.781000      3.653000     -2.494000
H         -16.970000      2.607000     -1.343000
C         -16.643000      4.697000     -0.657000
C         -16.493000      4.314000      0.836000
C         -17.473000      3.534000      1.440000
H         -18.385000      3.310000      0.894000
C         -17.344000      3.164000      2.771000
H         -18.156000      2.607000      3.229000
C         -16.235000      3.507000      3.536000
H         -16.183000      3.219000      4.582000
C         -15.202000      4.223000      2.963000
H         -14.320000      4.522000      3.522000
C         -15.357000      4.618000      1.577000
H         -14.668000      5.265000      1.042000
C         -20.215000      8.665000      0.442000
C         -18.106000      9.643000      0.981000
C         -18.136000     12.517000     -2.461000
C         -20.255000      6.840000     -4.234000
C         -16.020000     10.620000     -4.454000
C         -18.923000      8.549000      1.065000
C         -18.628000      8.559000     -5.787000
C         -19.929000     11.921000     -0.986000
C         -15.240000      8.178000     -1.305000
C         -18.932000      6.454000     -4.528000
C         -16.378000      6.106000     -1.182000
C         -15.175000      7.637000     -2.563000
C         -16.866000      7.207000     -4.805000
C         -17.826000      9.680000     -5.700000
C         -16.793000      7.900000      0.486000
C         -18.156000     11.766000     -4.568000
C         -17.785000      5.541000     -1.001000
C         -18.658000      5.469000     -2.224000
C         -16.840000     11.651000     -4.051000
C         -21.582000      9.990000     -3.548000
C         -20.227000     11.801000     -3.408000
C         -20.737000     11.537000     -2.123000
C         -19.946000     11.026000      0.096000
C         -19.936000      5.922000     -1.940000
C         -15.980000      7.307000     -0.488000
C         -18.599000     10.885000      0.591000
C         -18.121000      7.324000     -5.287000
C         -16.841000      9.290000      0.672000
C         -15.204000      8.535000     -3.686000
C         -21.577000      7.715000     -2.627000
C         -18.578000     12.250000     -1.169000
C         -15.975000      6.498000     -2.598000
C         -21.579000      9.581000     -1.083000
C         -16.052000      8.335000     -4.793000
C         -15.149000      9.584000     -1.082000
C         -20.005000     10.225000     -5.255000
C         -19.969000      8.877000     -5.532000
C         -15.247000     10.461000     -2.184000
C         -20.757000      6.590000     -2.903000
C         -18.160000      5.831000     -3.514000
C         -21.528000      8.609000     -3.728000
C         -18.624000      6.355000     -0.037000
C         -16.392000     11.411000     -0.497000
C         -16.851000      6.375000     -3.677000
C         -15.167000      9.975000     -3.500000
C         -21.505000      8.184000     -1.366000
C         -16.811000     12.126000     -2.752000
C         -20.756000      9.837000     -0.019000
C         -18.961000     12.331000     -3.564000
C         -15.978000     10.124000     -0.048000
C         -15.929000     11.613000     -1.811000
C         -18.109000      7.388000      0.786000
C         -19.906000      6.508000     -0.644000
C         -20.814000     10.853000     -4.313000
C         -17.737000     11.649000     -0.214000
C         -16.492000      9.602000     -5.219000
C         -20.749000      8.043000     -4.715000
C         -18.668000     10.764000     -5.342000
C         -20.666000      7.627000     -0.386000
C         -21.558000     10.420000     -2.185000
O          -8.920000     13.387000     10.210000
C         -10.298000     13.513000     10.361000
H         -10.470000     13.998000     11.330000
H         -10.701000     12.494000     10.302000
H         -10.765000     14.037000      9.518000
O          -8.460000     14.630000      8.268000
C          -8.068000     13.961000      9.215000
C          -6.600000     13.515000      9.397000
H          -6.536000     12.589000      9.982000
H          -6.136000     14.197000     10.121000
C          -5.689000     13.415000      8.179000
H          -5.541000     14.437000      7.810000
H          -4.652000     13.119000      8.380000
C          -6.238000     12.416000      7.117000
H          -5.313000     11.942000      6.766000
H          -6.733000     11.634000      7.705000
C          -7.006000     12.867000      5.898000
C          -6.483000     14.095000      5.221000
C          -7.140000     15.343000      5.394000
H          -8.090000     15.383000      5.918000
C          -6.459000     16.443000      4.835000
H          -6.826000     17.412000      5.160000
C          -5.402000     16.282000      3.907000
H          -4.924000     17.164000      3.491000
C          -4.875000     15.023000      3.626000
H          -3.985000     14.892000      3.018000
C          -5.363000     13.927000      4.352000
H          -4.953000     12.922000      4.304000
C         -12.313000     13.560000      4.346000
C         -11.105000     13.062000      2.335000
C         -12.876000      8.906000      1.728000
C         -11.318000      9.878000      7.717000
C          -9.985000      7.210000      2.954000
C         -11.152000     13.686000      3.586000
C         -11.008000      7.471000      6.412000
C         -13.901000     10.953000      2.464000
C          -7.858000     10.724000      2.879000
C         -10.049000      9.429000      7.424000
C          -7.654000     11.790000      5.009000
C          -7.620000      9.705000      3.838000
C          -8.733000      8.309000      5.962000
C         -11.024000      6.933000      5.131000
C          -8.967000     12.882000      3.208000
C         -12.456000      7.290000      3.209000
C          -8.456000     12.538000      5.964000
C          -9.196000     11.687000      7.058000
C         -11.309000      7.392000      2.414000
C         -14.222000      9.911000      5.827000
C         -14.194000      8.924000      3.752000
C         -14.481000     10.301000      3.560000
C         -13.467000     12.301000      2.607000
C         -10.562000     12.161000      7.176000
C          -7.961000     11.921000      3.585000
C         -12.270000     12.391000      1.884000
C          -9.893000      8.233000      6.770000
C          -9.803000     12.629000      2.100000
C          -8.121000      8.384000      3.594000
C         -12.868000     11.428000      7.076000
C         -13.064000     10.294000      1.592000
C          -7.586000     10.254000      5.134000
C         -13.993000     12.214000      5.083000
C          -8.685000      7.692000      4.701000
C          -8.824000     10.413000      1.838000
C         -13.082000      7.763000      5.502000
C         -12.311000      7.974000      6.656000
C          -9.306000      9.088000      1.692000
C         -11.606000     11.283000      7.588000
C          -8.969000     10.265000      7.024000
C         -13.426000     10.173000      6.930000
C          -9.618000     13.383000      5.443000
C         -10.823000     10.662000      0.926000
C          -8.128000      9.516000      6.187000
C          -8.977000      8.118000      2.567000
C         -13.138000     12.466000      6.185000
C         -11.593000      8.396000      1.501000
C         -13.474000     12.879000      3.891000
C         -13.437000      8.187000      2.776000
C          -9.739000     11.367000      1.460000
C         -10.562000      9.257000      1.147000
C          -9.816000     13.596000      4.089000
C         -10.784000     13.155000      6.198000
C         -14.071000      8.687000      5.113000
C         -12.078000     11.154000      1.203000
C          -9.839000      6.967000      4.315000
C         -12.482000      9.181000      7.351000
C         -12.345000      7.019000      4.625000
C         -12.128000     13.310000      5.702000
C         -14.544000     10.905000      4.866000
$end

--------------------------------------------------------------
 ----------------------------------------------------------------
             Standard Nuclear Orientation (Angstroms)
    I     Atom           X                Y                Z
 ----------------------------------------------------------------
    1      O       3.9871901328    -6.6791717178     3.3212564958
    2      C       3.2635923414    -7.3573307265     4.3993949819
    3      H       2.9512172160    -8.3375722191     4.0194813112
    4      H       2.4652224212    -6.6894335608     4.7471144760
    5      H       4.0136227870    -7.4968745251     5.1874602451
    6      O       5.0948165414    -8.5575261699     2.5288713047
    7      C       4.8776132351    -7.3310805841     2.5372944248
    8      C       5.5944148113    -6.3553776515     1.5458705560
    9      H       6.0451507533    -6.8974956608     0.7052766144
   10      H       6.3686015735    -5.9682481582     2.2202840883
   11      C       4.7385146950    -5.1965832131     0.9815121235
   12      H       3.8361551443    -5.6111697020     0.5136678282
   13      H       4.3267852204    -4.5990204557     1.8044602328
   14      C       5.5371531387    -4.4395025491    -0.0741926196
   15      H       6.4246043652    -4.0364268299     0.4297659949
   16      H       6.1624291905    -5.0730621971    -0.7153494112
   17      C       4.8270354571    -3.2950212863    -0.7456660124
   18      C       3.8968692619    -3.8589996547    -1.8479170043
   19      C       4.4527576499    -4.3257736627    -3.0339718621
   20      H       5.5123768900    -4.1747973959    -3.2195769076
   21      C       3.6359986156    -4.8537403860    -4.0235464267
   22      H       4.0949088507    -5.1524243505    -4.9613877169
   23      C       2.2607174431    -4.9816598417    -3.8654537030
   24      H       1.6526786930    -5.3775091041    -4.6737582495
   25      C       1.6684074607    -4.5957500298    -2.6787285866
   26      H       0.5975865815    -4.6677958163    -2.5115219800
   27      C       2.5303376023    -4.0299741534    -1.6598958778
   28      H       2.1779275909    -3.5979405976    -0.7278501758
   29      C       5.3690927978     1.5001481957    -3.2803321597
   30      C       3.2304635743     1.6572033053    -2.2332004884
   31      C       4.5144490957     4.7176965693     0.7822434527
   32      C       8.9498470295     0.2891424067     0.0225249536
   33      C       4.8995533711     2.4415129547     3.3743076591
   34      C       4.1024132922     0.8958599611    -2.9622004896
   35      C       8.2401927051     1.5185662452     2.4717711163
   36      C       5.0302696676     4.6039980845    -1.5558523093
   37      C       3.1356201308    -0.4338840989     1.1140872478
   38      C       8.3298850818    -0.4832280320     1.0249480623
   39      C       4.5221098680    -2.0086201923     0.0180902383
   40      C       4.0617246962    -0.8318152992     2.0433079395
   41      C       6.8114836077    -0.4379014657     2.6387933045
   42      C       7.2616135847     2.2924495645     3.0641405223
   43      C       3.1801796977    -0.3624767624    -1.2712197424
   44      C       6.1064479158     4.2395267564     2.2791547349
   45      C       5.5777646889    -2.0875947986    -1.0823600834
   46      C       6.9908635023    -1.7368793938    -0.7039523029
   47      C       4.8898413837     3.6391817456     2.6936718205
   48      C       8.4376440359     3.6120253413    -0.8994957057
   49      C       6.8153428576     4.8425141248     0.0951812473
   50      C       6.4431195142     4.6317559308    -1.2457332788
   51      C       4.6425227936     3.6586560239    -2.5191896075
   52      C       7.5640469040    -0.9156981484    -1.6611728366
   53      C       3.4167489075    -1.0880907370    -0.0969909023
   54      C       3.4264157104     3.0258953537    -2.0719620409
   55      C       7.9623434354     0.1403385161     2.2360549520
   56      C       2.6502245262     0.9366553357    -1.2511372162
   57      C       4.5068752405     0.1359375401     3.0095736560
   58      C       8.5790631356     1.3829955639    -1.9170014253
   59      C       4.0909293257     4.4807221537    -0.5217470115
   60      C       5.0116684192    -1.6286330557     1.4098772913
   61      C       7.0023293898     2.9717475222    -2.8420278627
   62      C       5.8698185747     0.3463291766     3.2971042229
   63      C       2.4793125577     0.8300402553     1.1953374564
   64      C       8.3366869485     3.4835974367     1.4305937647
   65      C       8.9193645019     2.2372739710     1.4784862250
   66      C       2.9663883078     1.7989462099     2.0992818488
   67      C       8.5383169739     0.0840563084    -1.3466527944
   68      C       7.3432768543    -1.4297728509     0.6468394652
   69      C       8.9566868062     2.3187021028    -0.9191579323
   70      C       5.2949662342    -1.1451918734    -2.2346251399
   71      C       2.3963257846     2.8957357357     0.2200332075
   72      C       6.3518431999    -1.3396619758     1.6690553617
   73      C       3.9011188995     1.4535725135     3.0899622872
   74      C       7.5778045913     1.6674607326    -2.7724702415
   75      C       3.8927800564     3.9396624668     1.7829319862
   76      C       5.6662991751     2.8266324040    -3.1045652276
   77      C       5.8541921594     4.9331203310     1.0830941234
   78      C       2.2329100065     1.5050965069    -0.0422334870
   79      C       2.8398811187     3.0670861166     1.5450489480
   80      C       4.0793325317    -0.4344990348    -2.3983120072
   81      C       6.5325969390    -0.5112312078    -2.5536018051
   82      C       8.1063910458     4.2439966041     0.2882339688
   83      C       3.0861908626     3.5379082998    -0.8082948394
   84      C       6.0433331332     1.7245102272     3.5226584069
   85      C       9.2167572021     1.6310767616     0.2474185887
   86      C       7.2789363051     3.5517910799     2.4114975333
   87      C       6.5444994769     0.7639455647    -3.0733205064
   88      C       7.4179109535     3.8653604225    -1.8686245812
   89      O     -10.2862439787     1.1432055172    -3.0135825756
   90      C      -9.4534941895     1.7051493859    -3.9770699274
   91      H     -10.1029985259     2.1163111922    -4.7599237362
   92      H      -8.8059552991     0.8908656338    -4.3261921933
   93      H      -8.7581329249     2.4394504509    -3.5521126853
   94      O      -9.7758073344     2.3562143435    -1.0652301898
   95      C     -10.4379404307     1.5002569301    -1.6370261928
   96      C     -11.4427049514     0.5738659285    -0.9163931585
   97      H     -11.5620631083    -0.3759135347    -1.4525550759
   98      H     -12.4471100022     0.9829599893    -1.0849414998
   99      C     -11.2782673669     0.3028590866     0.5745664561
  100      H     -11.4758405520     1.2494532197     1.0917447461
  101      H     -12.0401146008    -0.3412148185     1.0307940275
  102      C      -9.8979525231    -0.3398113668     0.9046446597
  103      H     -10.1736621536    -1.0559844963     1.6885976227
  104      H      -9.6723092101    -0.9685456814     0.0351210793
  105      C      -8.7289122890     0.4655271326     1.4184158467
  106      C      -9.0607618102     1.5120743201     2.4354983800
  107      C      -9.1087041674     2.8826037047     2.0634328801
  108      H      -8.7860535076     3.1824824739     1.0711399418
  109      C      -9.5855007898     3.7442636884     3.0716238607
  110      H      -9.8443722573     4.7408635766     2.7265887519
  111      C      -9.6882088391     3.3372856431     4.4237236822
  112      H     -10.0431154159     4.0475247955     5.1647133368
  113      C      -9.4767877002     2.0110223287     4.7953387017
  114      H      -9.6747628218     1.6546108405     5.8016695133
  115      C      -9.2429681966     1.0713982663     3.7810058859
  116      H      -9.1785807982    -0.0020466107     3.9359231509
  117      C      -4.2344195137     3.0459740073    -0.6295174089
  118      C      -3.6479621834     2.3853563775     1.6000657689
  119      C      -0.6849073476    -0.8551768260     0.3767601664
  120      C      -5.8928469554    -1.0860774612    -3.0966126812
  121      C      -2.9520545730    -3.5358434785     1.0181982044
  122      C      -4.6088934039     2.8557834732     0.6990133082
  123      C      -4.5109078728    -3.3092952760    -2.2361936438
  124      C      -1.0875516017     1.3282731232    -0.5467948801
  125      C      -5.5267875671    -0.9447576895     2.8983509756
  126      C      -6.4552726849    -1.8995743210    -2.1375969576
  127      C      -7.3637637458    -0.2351830129     1.5430302397
  128      C      -5.9760284515    -2.0785558201     2.1721482306
  129      C      -6.0937367552    -3.2360551088    -0.3468398900
  130      C      -3.5142116609    -3.6750128113    -1.3398073735
  131      C      -5.6476636664     1.4129896942     2.2491189346
  132      C      -1.4019854902    -2.6632874758    -0.7176583164
  133      C      -7.6457068966     0.6339725306     0.4117434941
  134      C      -7.5467806045    -0.0302659734    -1.0086922837
  135      C      -1.7367081981    -2.8676617697     0.6255579197
  136      C      -2.6619715364     0.1096469438    -3.4682202350
  137      C      -1.0483656307    -0.6089891481    -1.9983848194
  138      C      -1.1662069627     0.7969316340    -1.8407073795
  139      C      -1.9156825741     2.4317695165    -0.1969323323
  140      C      -6.8131037767     0.8571830765    -1.8911368973
  141      C      -6.2861904090     0.1378615170     2.4589229640
  142      C      -2.3274092831     2.1919973696     1.1208796553
  143      C      -5.7664590721    -3.0043333494    -1.7045712126
  144      C      -4.2755307198     1.5698216535     2.5376044860
  145      C      -5.0453448512    -3.1239174476     1.8613024425
  146      C      -4.8931005182     0.9497961553    -3.3642069246
  147      C      -0.9114287242     0.5222176856     0.5552438503
  148      C      -6.9984280114    -1.7100922554     1.2771025662
  149      C      -3.0892391606     2.2684886197    -2.4354419452
  150      C      -5.1294068731    -3.6992179333     0.5634688909
  151      C      -4.0871651453    -0.8058764279     3.0458544601
  152      C      -2.5686386157    -2.2494843665    -2.8011989259
  153      C      -3.9107914671    -2.4287711831    -3.1715500578
  154      C      -3.2307522367    -1.8715019101     2.6713357534
  155      C      -6.0589437166     0.3398692750    -2.9839282930
  156      C      -7.2288962935    -1.4348674355    -1.0372106515
  157      C      -4.0056899677    -0.0248925155    -3.7767472375
  158      C      -6.7689068713     1.8673910960     0.1981776771
  159      C      -2.1825779752     0.1888381822     2.5235168722
  160      C      -7.0489416421    -2.3302232385     0.0280617595
  161      C      -3.7063845639    -2.9810100811     2.0733963687
  162      C      -4.4706040972     2.1050063441    -2.7075401950
  163      C      -1.2795044213    -1.7373557543     1.2855685392
  164      C      -2.9109345875     2.8423263746    -1.1045145580
  165      C      -0.7249794002    -1.4506487399    -0.8777490725
  166      C      -3.5097484071     0.4324479161     2.8929893913
  167      C      -2.0558805919    -1.2376600796     2.3234231891
  168      C      -5.8386943726     2.2736478669     1.1402759434
  169      C      -6.3550402939     1.9641934689    -1.1438017403
  170      C      -1.9225873024    -1.0134486409    -2.9962665697
  171      C      -1.6336296277     1.0396193758     1.5915055673
  172      C      -3.8405255406    -3.9535955651     0.0339276451
  173      C      -4.6186037705    -1.3129612039    -3.6438686297
  174      C      -2.2917719682    -3.1013161561    -1.7699077634
  175      C      -5.1448968608     2.6091756449    -1.5864391357
  176      C      -2.1443790301     1.2482416881    -2.7966988239
 ----------------------------------------------------------------
 Molecular Point Group                 C1    NOp =  1
 Largest Abelian Subgroup              C1    NOp =  1
 Nuclear Repulsion Energy = 34408.4396266841 hartrees
 There are      462 alpha and      462 beta electrons
 Requested basis set is 6-31G(d,p)
 There are 676 shells and 2360 basis functions

 Total QAlloc Memory Limit  20000 MB
 Mega-Array Size      4888 MB
 MEM_STATIC part      5000 MB
 A cutoff of  1.0D-08 yielded  37507 shell pairs
 There are    528373 function pairs
 
 -------------------------------------------------------
 OpenMP Integral Computing Module                       
 Release: version 1.0, May 2013, Q-Chem Inc. Pittsburgh 
 -------------------------------------------------------
 Integral Job Info:
 Integral job number is                      11
 Integral operator is                         1
 short-range coefficients                     0
 long-range coefficients              100000000
 Omega coefficients                           0
 if combine SR and LR in K                    0
 Integral screening is                        0
 Integral computing path is                   2
 max size of driver memory is            800000
 size of driver memory is                593474
 size of scratch memory is              2260544
 max col of scratch BK array               1296
 max len of scratch array in speh3          155
 max len of scratch index in speh4           18
 max int batch size is                      520
 min int batch size is                       52
 fixed nKL is                                52
 max L of basis functions is                  2
 order of int derivative is                   0
 number of shells is                        676
 number of basis is                        2360
 number of cartesian basis is              2360
 number of contracted shell pairs         37507
 number of primitive shell pairs         113703
 maxK2 (contraction) of shell pair           36
 max number of K2 of shell pair               1
 max number of CS2 of shell pair           7201
 max number of PS2 of shell pair          34416
 mem total for path MDJ                 1504040
 -------------------------------------------------------
 Smallest overlap matrix eigenvalue = 2.72E-04

 Scale SEOQF with 1.000000e-02/1.000000e-02/1.000000e-02

 Standard Electronic Orientation quadrupole field applied
 Nucleus-field energy     =     0.0000001227 hartrees
 Guess from superposition of atomic densities
 Warning:  Energy on first SCF cycle will be non-variational
 A restricted hybrid HF-DFT SCF calculation will be
 performed using Pulay DIIS extrapolation
 Exchange:     0.2000 Hartree-Fock + 0.0800 Slater + 0.7200 B88
 Correlation:  0.1900 VWN1RPA + 0.8100 LYP
 Using SG-1 standard quadrature grid
 SCF converges when DIIS error is below 1.0E-05
 using 16 threads for integral computing 
 -------------------------------------------------------
 OpenMP BLAS3 based DFT computing Module                
 Release: version 1.0, May 2013, Q-Chem Inc. Pittsburgh 
 -------------------------------------------------------
 ---------------------------------------
  Cycle       Energy         DIIS Error
 ---------------------------------------
    1   -5858.3244045721      1.83E-02
    2   -5803.1015837581      1.30E-03
    3   -5802.3038049388      1.81E-03
    4   -5803.9957302690      6.19E-04
    5   -5804.1957396147      2.83E-04
    6   -5804.2427371562      1.38E-04
    7   -5804.2557051323      4.70E-05
    8   -5804.2567626178      2.80E-05
    9   -5804.2573224953      8.96E-06 Convergence criterion met
 ---------------------------------------
 SCF time:  CPU 8197.66 s  wall 846.57 s
 SCF   energy in the final basis set = -5804.2573224953
 Total energy in the final basis set = -5804.2573224953
 
 --------------------------------------------------------------
 
                    Orbital Energies (a.u.)
 --------------------------------------------------------------
 
 Alpha MOs
 -- Occupied --
-19.194 -19.186 -19.154 -19.129 -10.338 -10.318 -10.252 -10.242
-10.241 -10.239 -10.239 -10.235 -10.234 -10.232 -10.231 -10.231
-10.230 -10.229 -10.226 -10.226 -10.225 -10.224 -10.223 -10.223
-10.222 -10.222 -10.221 -10.221 -10.221 -10.220 -10.219 -10.219
-10.219 -10.219 -10.218 -10.218 -10.218 -10.218 -10.218 -10.217
-10.217 -10.217 -10.217 -10.217 -10.217 -10.216 -10.216 -10.216
-10.216 -10.215 -10.215 -10.215 -10.215 -10.215 -10.215 -10.215
-10.215 -10.215 -10.215 -10.215 -10.214 -10.214 -10.214 -10.214
-10.214 -10.214 -10.214 -10.214 -10.213 -10.213 -10.213 -10.213
-10.213 -10.213 -10.213 -10.213 -10.213 -10.213 -10.212 -10.212
-10.212 -10.212 -10.212 -10.212 -10.212 -10.212 -10.212 -10.212
-10.212 -10.212 -10.211 -10.211 -10.211 -10.211 -10.211 -10.211
-10.210 -10.210 -10.210 -10.210 -10.210 -10.210 -10.210 -10.210
-10.210 -10.210 -10.209 -10.209 -10.209 -10.209 -10.209 -10.209
-10.209 -10.209 -10.209 -10.209 -10.208 -10.208 -10.208 -10.207
-10.207 -10.207 -10.207 -10.206 -10.206 -10.206 -10.206 -10.206
-10.205 -10.205 -10.205 -10.204 -10.203 -10.202 -10.202 -10.199
-10.199 -10.199 -10.198 -10.198 -10.197 -10.196 -10.196 -10.195
-10.194 -10.193 -10.193 -10.192  -1.085  -1.083  -1.021  -0.995
 -0.983  -0.981  -0.965  -0.962  -0.962  -0.962  -0.961  -0.959
 -0.935  -0.933  -0.927  -0.926  -0.923  -0.922  -0.922  -0.920
 -0.920  -0.916  -0.897  -0.896  -0.887  -0.887  -0.886  -0.880
 -0.875  -0.869  -0.854  -0.847  -0.842  -0.840  -0.839  -0.838
 -0.837  -0.833  -0.823  -0.819  -0.807  -0.805  -0.798  -0.798
 -0.794  -0.794  -0.792  -0.791  -0.790  -0.787  -0.785  -0.783
 -0.771  -0.769  -0.767  -0.766  -0.765  -0.764  -0.764  -0.760
 -0.747  -0.745  -0.742  -0.741  -0.735  -0.731  -0.715  -0.715
 -0.714  -0.713  -0.712  -0.711  -0.709  -0.709  -0.707  -0.707
 -0.706  -0.705  -0.704  -0.704  -0.703  -0.702  -0.671  -0.671
 -0.661  -0.656  -0.656  -0.654  -0.648  -0.647  -0.631  -0.630
 -0.625  -0.624  -0.624  -0.623  -0.620  -0.620  -0.616  -0.615
 -0.613  -0.613  -0.613  -0.612  -0.610  -0.609  -0.608  -0.606
 -0.605  -0.604  -0.603  -0.599  -0.567  -0.565  -0.563  -0.561
 -0.559  -0.558  -0.556  -0.555  -0.555  -0.553  -0.553  -0.550
 -0.536  -0.535  -0.534  -0.531  -0.528  -0.527  -0.525  -0.521
 -0.520  -0.520  -0.517  -0.517  -0.515  -0.514  -0.512  -0.510
 -0.509  -0.508  -0.502  -0.495  -0.493  -0.489  -0.485  -0.485
 -0.483  -0.483  -0.482  -0.482  -0.481  -0.477  -0.475  -0.474
 -0.472  -0.471  -0.471  -0.469  -0.467  -0.466  -0.465  -0.464
 -0.464  -0.463  -0.462  -0.461  -0.460  -0.460  -0.459  -0.455
 -0.455  -0.455  -0.454  -0.450  -0.449  -0.447  -0.444  -0.443
 -0.442  -0.442  -0.439  -0.439  -0.437  -0.434  -0.434  -0.432
 -0.431  -0.428  -0.427  -0.426  -0.424  -0.423  -0.423  -0.423
 -0.422  -0.421  -0.421  -0.419  -0.418  -0.418  -0.416  -0.416
 -0.415  -0.415  -0.413  -0.413  -0.412  -0.412  -0.412  -0.411
 -0.409  -0.408  -0.408  -0.408  -0.401  -0.401  -0.401  -0.395
 -0.394  -0.392  -0.391  -0.390  -0.388  -0.386  -0.384  -0.384
 -0.379  -0.376  -0.374  -0.368  -0.368  -0.366  -0.365  -0.364
 -0.362  -0.360  -0.359  -0.358  -0.357  -0.357  -0.356  -0.355
 -0.355  -0.354  -0.352  -0.352  -0.350  -0.350  -0.350  -0.349
 -0.348  -0.348  -0.347  -0.345  -0.345  -0.344  -0.343  -0.342
 -0.340  -0.339  -0.338  -0.337  -0.337  -0.334  -0.333  -0.332
 -0.332  -0.330  -0.329  -0.328  -0.327  -0.326  -0.323  -0.321
 -0.316  -0.297  -0.296  -0.295  -0.289  -0.285  -0.283  -0.271
 -0.269  -0.267  -0.266  -0.265  -0.264  -0.263  -0.262  -0.261
 -0.260  -0.259  -0.258  -0.257  -0.256  -0.253  -0.251  -0.250
 -0.250  -0.247  -0.246  -0.242  -0.223  -0.219  -0.211  -0.210
 -0.208  -0.206  -0.204  -0.203  -0.199  -0.199
 -- Virtual --
 -0.123  -0.120  -0.119  -0.112  -0.110  -0.107  -0.075  -0.073
 -0.072  -0.070  -0.059  -0.058  -0.053  -0.050  -0.023  -0.021
 -0.020  -0.018  -0.017  -0.015  -0.015  -0.013  -0.013  -0.011
 -0.011  -0.010  -0.008  -0.007  -0.006  -0.005  -0.002   0.004
  0.005   0.012   0.035   0.036   0.043   0.044   0.046   0.046
  0.048   0.050   0.051   0.056   0.060   0.065   0.067   0.070
  0.071   0.075   0.075   0.081   0.084   0.085   0.088   0.093
  0.096   0.098   0.098   0.100   0.101   0.104   0.105   0.106
  0.107   0.113   0.113   0.115   0.115   0.116   0.119   0.119
  0.123   0.123   0.127   0.130   0.133   0.134   0.135   0.136
  0.143   0.145   0.148   0.149   0.150   0.152   0.153   0.155
  0.160   0.161   0.161   0.162   0.164   0.166   0.167   0.169
  0.169   0.172   0.172   0.173   0.176   0.177   0.180   0.181
  0.183   0.184   0.184   0.186   0.189   0.190   0.191   0.193
  0.194   0.196   0.197   0.200   0.200   0.203   0.207   0.207
  0.210   0.211   0.213   0.214   0.214   0.217   0.219   0.220
  0.221   0.223   0.224   0.224   0.226   0.228   0.228   0.230
  0.230   0.232   0.235   0.237   0.238   0.239   0.240   0.242
  0.244   0.245   0.247   0.248   0.250   0.256   0.257   0.257
  0.265   0.266   0.272   0.274   0.277   0.279   0.279   0.281
  0.282   0.285   0.286   0.288   0.293   0.296   0.297   0.301
  0.304   0.310   0.311   0.312   0.314   0.315   0.319   0.320
  0.321   0.321   0.323   0.325   0.327   0.331   0.331   0.334
  0.336   0.337   0.338   0.343   0.344   0.346   0.348   0.351
  0.353   0.356   0.361   0.368   0.373   0.376   0.387   0.388
  0.390   0.396   0.397   0.401   0.402   0.403   0.405   0.406
  0.411   0.412   0.414   0.416   0.417   0.420   0.423   0.424
  0.426   0.428   0.432   0.433   0.435   0.439   0.440   0.445
  0.449   0.452   0.454   0.455   0.457   0.461   0.461   0.463
  0.464   0.466   0.467   0.468   0.472   0.473   0.474   0.477
  0.478   0.478   0.479   0.480   0.482   0.483   0.484   0.484
  0.486   0.487   0.489   0.490   0.491   0.491   0.492   0.493
  0.494   0.496   0.499   0.500   0.501   0.502   0.502   0.504
  0.504   0.506   0.506   0.508   0.508   0.509   0.509   0.510
  0.511   0.513   0.513   0.515   0.515   0.517   0.518   0.518
  0.519   0.519   0.520   0.521   0.522   0.523   0.524   0.525
  0.527   0.527   0.528   0.529   0.531   0.531   0.533   0.534
  0.534   0.534   0.535   0.536   0.536   0.537   0.538   0.540
  0.540   0.540   0.541   0.542   0.543   0.545   0.546   0.546
  0.548   0.548   0.549   0.550   0.550   0.551   0.552   0.552
  0.553   0.554   0.554   0.555   0.556   0.557   0.557   0.558
  0.559   0.559   0.561   0.562   0.563   0.564   0.564   0.565
  0.565   0.567   0.567   0.568   0.569   0.569   0.570   0.572
  0.573   0.574   0.576   0.577   0.577   0.578   0.578   0.579
  0.581   0.582   0.582   0.583   0.584   0.585   0.586   0.587
  0.587   0.588   0.588   0.590   0.591   0.593   0.593   0.594
  0.596   0.596   0.597   0.598   0.599   0.600   0.601   0.602
  0.602   0.602   0.604   0.605   0.606   0.607   0.608   0.608
  0.609   0.611   0.612   0.612   0.614   0.615   0.616   0.617
  0.618   0.620   0.620   0.621   0.622   0.624   0.626   0.626
  0.627   0.629   0.629   0.630   0.631   0.632   0.632   0.634
  0.634   0.635   0.635   0.636   0.637   0.638   0.639   0.641
  0.641   0.643   0.644   0.644   0.646   0.646   0.649   0.650
  0.650   0.651   0.652   0.654   0.654   0.655   0.656   0.657
  0.657   0.658   0.660   0.661   0.662   0.663   0.664   0.665
  0.665   0.667   0.667   0.668   0.669   0.669   0.670   0.672
  0.673   0.674   0.675   0.676   0.677   0.678   0.678   0.680
  0.681   0.682   0.682   0.683   0.684   0.685   0.686   0.688
  0.689   0.690   0.693   0.693   0.693   0.695   0.697   0.697
  0.698   0.699   0.700   0.701   0.702   0.702   0.703   0.704
  0.706   0.706   0.707   0.708   0.709   0.713   0.713   0.715
  0.717   0.718   0.719   0.719   0.720   0.723   0.723   0.725
  0.726   0.727   0.728   0.730   0.730   0.732   0.733   0.733
  0.734   0.735   0.737   0.738   0.739   0.740   0.741   0.745
  0.746   0.747   0.748   0.749   0.753   0.754   0.756   0.757
  0.760   0.762   0.762   0.764   0.765   0.766   0.767   0.768
  0.770   0.771   0.772   0.773   0.775   0.777   0.778   0.778
  0.780   0.781   0.783   0.784   0.785   0.786   0.788   0.790
  0.791   0.792   0.793   0.794   0.795   0.796   0.798   0.798
  0.799   0.801   0.801   0.802   0.803   0.804   0.805   0.807
  0.808   0.809   0.809   0.810   0.811   0.812   0.813   0.814
  0.814   0.815   0.816   0.817   0.818   0.819   0.820   0.820
  0.820   0.821   0.822   0.823   0.824   0.825   0.826   0.827
  0.828   0.828   0.829   0.831   0.831   0.832   0.832   0.834
  0.836   0.837   0.838   0.840   0.840   0.843   0.848   0.850
  0.851   0.853   0.855   0.857   0.861   0.862   0.867   0.871
  0.876   0.877   0.878   0.880   0.881   0.886   0.887   0.889
  0.893   0.894   0.895   0.899   0.900   0.901   0.905   0.906
  0.909   0.913   0.915   0.916   0.916   0.922   0.925   0.925
  0.927   0.929   0.929   0.932   0.933   0.935   0.936   0.938
  0.940   0.941   0.941   0.945   0.947   0.948   0.949   0.951
  0.952   0.954   0.959   0.964   0.967   0.968   0.970   0.973
  0.976   0.979   0.981   0.983   0.985   0.985   0.988   0.991
  0.993   0.997   0.998   1.000   1.003   1.006   1.007   1.008
  1.009   1.011   1.012   1.014   1.016   1.017   1.018   1.020
  1.021   1.022   1.023   1.025   1.025   1.027   1.028   1.031
  1.034   1.035   1.037   1.039   1.040   1.042   1.042   1.045
  1.045   1.047   1.048   1.050   1.052   1.056   1.057   1.058
  1.060   1.061   1.064   1.066   1.067   1.067   1.070   1.072
  1.073   1.074   1.077   1.078   1.079   1.080   1.081   1.083
  1.083   1.086   1.087   1.091   1.093   1.095   1.095   1.097
  1.098   1.100   1.102   1.103   1.105   1.107   1.107   1.111
  1.113   1.115   1.116   1.119   1.121   1.122   1.126   1.127
  1.130   1.132   1.134   1.136   1.138   1.140   1.142   1.144
  1.146   1.149   1.151   1.155   1.156   1.157   1.159   1.161
  1.162   1.164   1.164   1.168   1.168   1.170   1.172   1.172
  1.174   1.174   1.178   1.179   1.180   1.182   1.183   1.187
  1.188   1.189   1.191   1.194   1.195   1.197   1.199   1.202
  1.206   1.209   1.212   1.213   1.216   1.219   1.222   1.224
  1.225   1.228   1.232   1.233   1.237   1.238   1.243   1.244
  1.248   1.249   1.251   1.254   1.257   1.258   1.260   1.260
  1.264   1.266   1.269   1.270   1.272   1.274   1.275   1.276
  1.280   1.281   1.284   1.285   1.287   1.290   1.291   1.294
  1.296   1.297   1.300   1.303   1.304   1.308   1.311   1.312
  1.314   1.319   1.322   1.323   1.327   1.328   1.329   1.331
  1.333   1.335   1.336   1.337   1.340   1.342   1.345   1.348
  1.352   1.354   1.354   1.359   1.362   1.363   1.368   1.373
  1.374   1.375   1.376   1.379   1.380   1.382   1.385   1.388
  1.391   1.392   1.393   1.394   1.398   1.399   1.401   1.404
  1.405   1.408   1.409   1.411   1.413   1.416   1.420   1.424
  1.426   1.429   1.431   1.434   1.437   1.440   1.445   1.446
  1.448   1.451   1.454   1.457   1.458   1.460   1.461   1.465
  1.466   1.468   1.469   1.475   1.476   1.477   1.479   1.480
  1.482   1.484   1.485   1.487   1.488   1.490   1.492   1.495
  1.497   1.499   1.500   1.504   1.508   1.510   1.515   1.520
  1.522   1.524   1.526   1.531   1.532   1.534   1.535   1.539
  1.545   1.546   1.548   1.549   1.550   1.552   1.556   1.557
  1.560   1.562   1.563   1.564   1.567   1.570   1.573   1.574
  1.574   1.576   1.578   1.581   1.584   1.585   1.587   1.588
  1.590   1.592   1.597   1.600   1.600   1.606   1.611   1.613
  1.613   1.622   1.622   1.626   1.628   1.632   1.639   1.646
  1.647   1.652   1.654   1.658   1.662   1.663   1.666   1.671
  1.672   1.679   1.682   1.685   1.688   1.691   1.694   1.698
  1.700   1.703   1.704   1.706   1.714   1.714   1.716   1.717
  1.720   1.721   1.721   1.725   1.728   1.730   1.733   1.734
  1.735   1.737   1.738   1.741   1.742   1.744   1.745   1.747
  1.749   1.751   1.753   1.754   1.755   1.756   1.757   1.759
  1.759   1.763   1.763   1.764   1.764   1.765   1.766   1.770
  1.771   1.773   1.774   1.776   1.777   1.778   1.779   1.781
  1.782   1.782   1.785   1.785   1.786   1.788   1.788   1.790
  1.792   1.792   1.794   1.795   1.796   1.797   1.799   1.800
  1.803   1.803   1.805   1.806   1.808   1.810   1.811   1.811
  1.812   1.814   1.816   1.816   1.819   1.819   1.820   1.822
  1.824   1.827   1.830   1.832   1.836   1.838   1.840   1.843
  1.846   1.849   1.850   1.852   1.853   1.854   1.856   1.859
  1.861   1.864   1.866   1.866   1.868   1.868   1.869   1.872
  1.874   1.875   1.876   1.879   1.880   1.885   1.886   1.888
  1.890   1.892   1.894   1.897   1.898   1.901   1.902   1.907
  1.911   1.914   1.915   1.916   1.919   1.920   1.924   1.925
  1.927   1.929   1.930   1.931   1.933   1.933   1.937   1.938
  1.940   1.942   1.943   1.946   1.948   1.950   1.951   1.952
  1.958   1.959   1.960   1.962   1.962   1.966   1.968   1.969
  1.971   1.974   1.975   1.977   1.977   1.979   1.980   1.982
  1.985   1.986   1.988   1.989   1.991   1.993   1.994   1.996
  2.000   2.000   2.001   2.001   2.005   2.006   2.006   2.008
  2.009   2.010   2.011   2.012   2.013   2.014   2.017   2.018
  2.019   2.019   2.021   2.021   2.022   2.023   2.024   2.025
  2.026   2.028   2.030   2.030   2.031   2.034   2.034   2.036
  2.037   2.038   2.040   2.040   2.042   2.043   2.044   2.044
  2.045   2.047   2.049   2.050   2.050   2.052   2.053   2.054
  2.055   2.057   2.059   2.060   2.061   2.061   2.064   2.066
  2.066   2.068   2.070   2.071   2.072   2.072   2.074   2.075
  2.077   2.079   2.081   2.083   2.083   2.085   2.090   2.091
  2.092   2.093   2.093   2.097   2.097   2.100   2.102   2.103
  2.106   2.108   2.110   2.111   2.113   2.115   2.118   2.121
  2.122   2.125   2.126   2.126   2.131   2.133   2.135   2.138
  2.141   2.145   2.150   2.157   2.162   2.165   2.167   2.170
  2.172   2.173   2.180   2.184   2.189   2.192   2.196   2.199
  2.207   2.209   2.213   2.215   2.216   2.218   2.221   2.223
  2.232   2.234   2.237   2.239   2.240   2.243   2.245   2.247
  2.249   2.250   2.253   2.255   2.257   2.259   2.263   2.263
  2.267   2.269   2.271   2.273   2.275   2.276   2.280   2.282
  2.285   2.287   2.288   2.288   2.291   2.293   2.296   2.298
  2.299   2.305   2.306   2.308   2.309   2.313   2.315   2.317
  2.318   2.323   2.325   2.326   2.329   2.330   2.331   2.337
  2.340   2.341   2.342   2.346   2.347   2.350   2.352   2.354
  2.355   2.357   2.359   2.359   2.361   2.362   2.364   2.366
  2.368   2.369   2.369   2.373   2.374   2.375   2.376   2.378
  2.380   2.383   2.384   2.385   2.391   2.391   2.393   2.394
  2.396   2.398   2.400   2.401   2.405   2.408   2.409   2.410
  2.412   2.413   2.414   2.416   2.418   2.420   2.421   2.425
  2.427   2.430   2.431   2.434   2.436   2.437   2.439   2.444
  2.445   2.448   2.449   2.451   2.453   2.454   2.458   2.460
  2.462   2.464   2.468   2.468   2.470   2.472   2.476   2.477
  2.479   2.482   2.484   2.488   2.489   2.489   2.491   2.491
  2.493   2.494   2.499   2.500   2.502   2.506   2.506   2.508
  2.510   2.510   2.516   2.517   2.518   2.518   2.522   2.525
  2.526   2.527   2.528   2.530   2.532   2.534   2.535   2.538
  2.541   2.542   2.545   2.548   2.549   2.552   2.553   2.556
  2.563   2.564   2.567   2.571   2.576   2.579   2.580   2.587
  2.590   2.593   2.593   2.595   2.598   2.600   2.602   2.604
  2.606   2.608   2.608   2.611   2.613   2.616   2.618   2.619
  2.620   2.621   2.622   2.626   2.627   2.631   2.633   2.633
  2.635   2.637   2.638   2.640   2.641   2.641   2.642   2.645
  2.646   2.646   2.648   2.651   2.651   2.652   2.656   2.659
  2.660   2.661   2.663   2.664   2.666   2.668   2.670   2.673
  2.676   2.677   2.680   2.682   2.683   2.687   2.688   2.689
  2.692   2.694   2.695   2.696   2.697   2.698   2.702   2.706
  2.710   2.711   2.714   2.716   2.718   2.720   2.725   2.726
  2.729   2.734   2.735   2.737   2.738   2.740   2.741   2.745
  2.746   2.747   2.748   2.751   2.753   2.755   2.757   2.760
  2.761   2.763   2.765   2.769   2.771   2.774   2.779   2.779
  2.782   2.785   2.788   2.789   2.793   2.795   2.796   2.798
  2.798   2.799   2.805   2.810   2.811   2.813   2.814   2.816
  2.818   2.820   2.822   2.825   2.826   2.830   2.834   2.835
  2.838   2.842   2.843   2.846   2.848   2.851   2.852   2.857
  2.859   2.865   2.866   2.869   2.871   2.873   2.875   2.877
  2.878   2.883   2.884   2.885   2.888   2.890   2.890   2.892
  2.893   2.896   2.898   2.899   2.900   2.902   2.904   2.905
  2.906   2.909   2.911   2.912   2.915   2.915   2.919   2.919
  2.920   2.921   2.924   2.924   2.927   2.928   2.930   2.931
  2.935   2.937   2.939   2.942   2.943   2.946   2.950   2.953
  2.957   2.958   2.962   2.965   2.966   2.967   2.970   2.978
  2.979   2.981   2.984   2.990   2.994   2.996   3.001   3.002
  3.004   3.005   3.011   3.012   3.013   3.016   3.017   3.021
  3.023   3.025   3.026   3.027   3.033   3.037   3.040   3.041
  3.041   3.044   3.046   3.049   3.054   3.056   3.060   3.062
  3.064   3.067   3.072   3.078   3.087   3.092   3.097   3.104
  3.108   3.115   3.126   3.130   3.134   3.136   3.141   3.146
  3.149   3.152   3.153   3.163   3.165   3.185   3.188   3.198
  3.198   3.201   3.208   3.212   3.216   3.222   3.230   3.232
  3.239   3.242   3.245   3.252   3.258   3.261   3.266   3.268
  3.279   3.287   3.306   3.322   3.322   3.327   3.328   3.338
  3.344   3.350   3.351   3.351   3.356   3.358   3.370   3.374
  3.385   3.388   3.402   3.402   3.413   3.427   3.432   3.439
  3.440   3.449   3.451   3.458   3.470   3.473   3.485   3.488
  3.494   3.496   3.507   3.511   3.519   3.522   3.530   3.542
  3.545   3.550   3.557   3.564   3.570   3.577   3.581   3.589
  3.603   3.604   3.680   3.692   3.857   3.883   3.972   4.002
  4.072   4.082   4.083   4.088   4.095   4.097   4.100   4.104
  4.105   4.109   4.113   4.113   4.117   4.118   4.126   4.128
  4.131   4.136   4.138   4.141   4.142   4.147   4.155   4.157
  4.160   4.162   4.164   4.167   4.174   4.175   4.181   4.182
  4.189   4.195   4.199   4.214   4.216   4.222   4.234   4.239
  4.242   4.247   4.249   4.250   4.253   4.258   4.262   4.263
  4.268   4.269   4.279   4.282   4.284   4.289   4.290   4.293
  4.301   4.305   4.314   4.327   4.377   4.383   4.388   4.392
  4.395   4.399   4.405   4.410   4.413   4.414   4.417   4.420
  4.421   4.426   4.428   4.430   4.433   4.448   4.458   4.460
  4.471   4.488   4.500   4.513   4.534   4.538   4.551   4.559
  4.560   4.569   4.599   4.609   4.621   4.633   4.634   4.636
  4.639   4.647   4.682   4.687   4.695   4.699   4.700   4.701
  4.703   4.709   4.712   4.716   4.732   4.752   4.793   4.802
  4.845   4.848   4.855   4.861   4.864   4.871   4.874   4.898
  4.911   4.914   4.948   4.952   4.965   4.970   4.975   4.977
  4.982   4.990   4.998   5.008   5.155   5.158   5.164   5.189
  5.193   5.194   5.208   5.216   5.288   5.315   5.328   5.332
  5.347   5.354
 --------------------------------------------------------------
 
          Ground-State Mulliken Net Atomic Charges

     Atom                 Charge (a.u.)
  ----------------------------------------
      1 O                    -0.464576
      2 C                    -0.086771
      3 H                     0.145683
      4 H                     0.133706
      5 H                     0.132287
      6 O                    -0.490496
      7 C                     0.579927
      8 C                    -0.248086
      9 H                     0.131585
     10 H                     0.131502
     11 C                    -0.178128
     12 H                     0.114596
     13 H                     0.119943
     14 C                    -0.187035
     15 H                     0.100633
     16 H                     0.111494
     17 C                     0.011997
     18 C                     0.115257
     19 C                    -0.106685
     20 H                     0.084836
     21 C                    -0.086662
     22 H                     0.086676
     23 C                    -0.077750
     24 H                     0.090569
     25 C                    -0.095894
     26 H                     0.099723
     27 C                    -0.130385
     28 H                     0.087962
     29 C                     0.005882
     30 C                     0.020907
     31 C                    -0.012531
     32 C                    -0.022578
     33 C                    -0.016438
     34 C                    -0.034686
     35 C                     0.004878
     36 C                    -0.031027
     37 C                     0.019304
     38 C                    -0.028656
     39 C                    -0.089640
     40 C                    -0.014716
     41 C                    -0.005076
     42 C                    -0.013426
     43 C                    -0.020980
     44 C                    -0.018514
     45 C                    -0.097166
     46 C                     0.028016
     47 C                     0.031652
     48 C                    -0.003202
     49 C                     0.017154
     50 C                     0.023152
     51 C                    -0.034925
     52 C                     0.003201
     53 C                     0.048871
     54 C                    -0.014548
     55 C                     0.014480
     56 C                     0.061050
     57 C                    -0.017482
     58 C                    -0.001791
     59 C                     0.004073
     60 C                     0.013440
     61 C                    -0.026403
     62 C                     0.001332
     63 C                    -0.010498
     64 C                     0.020325
     65 C                    -0.006330
     66 C                     0.028136
     67 C                    -0.008898
     68 C                     0.001455
     69 C                     0.016697
     70 C                     0.058697
     71 C                    -0.037955
     72 C                     0.016678
     73 C                    -0.039585
     74 C                    -0.006367
     75 C                     0.012428
     76 C                     0.037009
     77 C                    -0.014139
     78 C                    -0.036947
     79 C                    -0.000319
     80 C                    -0.029237
     81 C                    -0.010355
     82 C                    -0.031994
     83 C                     0.053304
     84 C                     0.018683
     85 C                     0.015836
     86 C                     0.004871
     87 C                     0.016925
     88 C                     0.004471
     89 O                    -0.488040
     90 C                    -0.077480
     91 H                     0.119398
     92 H                     0.126552
     93 H                     0.125542
     94 O                    -0.462520
     95 C                     0.617581
     96 C                    -0.267313
     97 H                     0.132624
     98 H                     0.134091
     99 C                    -0.180422
    100 H                     0.124952
    101 H                     0.107796
    102 C                    -0.191602
    103 H                     0.097058
    104 H                     0.109983
    105 C                     0.046857
    106 C                     0.049339
    107 C                    -0.085520
    108 H                     0.132139
    109 C                    -0.108003
    110 H                     0.090609
    111 C                    -0.082820
    112 H                     0.090053
    113 C                    -0.089905
    114 H                     0.092239
    115 C                    -0.096013
    116 H                     0.089175
    117 C                     0.005909
    118 C                     0.002867
    119 C                    -0.005531
    120 C                    -0.011224
    121 C                    -0.020187
    122 C                     0.012615
    123 C                    -0.020822
    124 C                    -0.006405
    125 C                    -0.030657
    126 C                     0.022049
    127 C                    -0.076544
    128 C                     0.001194
    129 C                     0.011271
    130 C                     0.012910
    131 C                     0.012752
    132 C                    -0.025313
    133 C                    -0.076418
    134 C                    -0.023957
    135 C                     0.019197
    136 C                    -0.004884
    137 C                    -0.003030
    138 C                     0.010976
    139 C                    -0.028892
    140 C                    -0.001519
    141 C                     0.056010
    142 C                     0.018431
    143 C                     0.007127
    144 C                    -0.020228
    145 C                    -0.003979
    146 C                     0.025923
    147 C                     0.058383
    148 C                     0.054352
    149 C                    -0.029648
    150 C                    -0.026859
    151 C                    -0.024111
    152 C                     0.031847
    153 C                    -0.016385
    154 C                     0.034376
    155 C                    -0.033745
    156 C                     0.014295
    157 C                     0.006734
    158 C                     0.022266
    159 C                    -0.035191
    160 C                    -0.039234
    161 C                     0.028012
    162 C                     0.009107
    163 C                    -0.015006
    164 C                     0.006302
    165 C                     0.002093
    166 C                     0.025656
    167 C                    -0.014574
    168 C                    -0.013005
    169 C                     0.026819
    170 C                     0.003018
    171 C                    -0.014306
    172 C                     0.000461
    173 C                    -0.012560
    174 C                    -0.027248
    175 C                    -0.012941
    176 C                    -0.017303
  ----------------------------------------
  Sum of atomic charges =     0.000000

 -----------------------------------------------------------------
                    Cartesian Multipole Moments
 -----------------------------------------------------------------
    Charge (ESU x 10^10)
                 0.0000
    Dipole Moment (Debye)
         X      -5.1366      Y       0.1286      Z       0.1672
       Tot       5.1410
    Quadrupole Moments (Debye-Ang)
        XX    -749.6319     XY       9.9121     YY    -835.4048
        XZ      -7.6667     YZ      -0.4962     ZZ    -786.3364
    Octopole Moments (Debye-Ang^2)
       XXX    -944.4390    XXY      28.8938    XYY    -255.1684
       YYY     253.8611    XXZ       4.1928    XYZ      56.8280
       YYZ     -15.2818    XZZ    -140.9936    YZZ    -117.8469
       ZZZ      63.3306
    Hexadecapole Moments (Debye-Ang^3)
      XXXX -159357.2647   XXXY    -963.3327   XXYY  -35653.5472
      XYYY    1089.7849   YYYY  -43509.4729   XXXZ    -465.2482
      XXYZ     188.9350   XYYZ    -492.7882   YYYZ     328.9101
      XXZZ  -30948.6629   XYZZ    -918.4254   YYZZ   -9888.0398
      XZZZ     177.3870   YZZZ    -550.6067   ZZZZ  -23185.0166
 -----------------------------------------------------------------
Archival summary:
1\1\mn251\SP\ProcedureUnspecified\6-31G**\428\afmv_a\FriOct1215:19:022018FriOct1215:19:022018\0\\#,ProcedureUnspecified,6-31G**,\\0,1\C\C,1,1.36496\C,2,1.37616,1,119.398\C,1,1.37667,2,108.548,3,-147.542,0\C,3,1.39901,2,116.719,1,134.736,0\C,5,1.37485,3,105.72,2,-142.033,0\C,4,1.40097,1,121.631,2,143.443,0\C,1,1.40726,2,123.537,3,0.149087,0\C,8,1.38924,1,121.966,2,-139.823,0\C,9,1.39802,8,106.401,1,138.235,0\C,8,1.39918,1,117.796,2,-2.59199,0\C,11,1.38645,8,110.179,1,-140.903,0\C,11,1.3891,8,119.735,1,0.358111,0\C,13,1.37954,11,119.943,8,-138.997,0\C,14,1.34713,13,124.553,11,-0.383271,0\C,15,1.36317,14,120.146,13,141.92,0\C,15,1.41078,14,117.847,13,-0.0386999,0\C,17,1.39021,15,107.819,14,139.958,0\C,18,1.41645,17,105.241,15,3.06126,0\C,19,1.40468,18,116.208,17,-142.028,0\C,20,1.36876,19,121.319,18,144.85,0\C,21,1.39543,20,120.931,19,-8.05163,0\C,21,1.40316,20,107.689,19,-140.999,0\C,22,1.4079,21,118.622,20,2.79279,0\C,20,1.41571,19,121.116,18,1.82228,0\C,25,1.37203,20,108.567,19,143.235,0\C,26,1.37761,25,119.356,20,-148.248,0\C,25,1.39715,20,122.476,19,-4.71111,0\C,28,1.38948,25,117.168,20,9.09092,0\C,27,1.40523,26,123.091,25,1.45788,0\C,30,1.40325,27,117.045,26,-0.0314253,0\C,31,1.40381,30,118.002,27,132.386,0\C,32,1.36596,31,108.26,30,-147.243,0\C,32,1.40827,31,120.941,30,4.8886,0\C,34,1.38695,32,116.453,31,-141.464,0\C,5,1.41645,3,125.904,2,9.12172,0\C,36,1.39209,5,113.307,3,-8.59964,0\C,37,1.39878,36,108.733,5,-141.009,0\C,38,1.39334,37,118.391,36,145.985,0\C,39,1.39121,38,115.919,37,-137.061,0\C,40,1.40204,39,110.375,38,144.971,0\C,41,1.39435,40,121.923,39,-138.755,0\C,42,1.3696,41,119.743,40,-5.45943,0\C,42,1.3812,41,122.049,40,136.403,0\C,44,1.38523,42,119.221,41,-3.53914,0\C,36,1.41088,5,119.198,3,-142.794,0\C,46,1.4166,36,102.924,5,139.61,0\C,47,1.38488,46,116.413,36,-146.209,0\C,48,1.40768,47,115.523,46,133.534,0\C,49,1.41202,48,110.81,47,-140.924,0\C,41,1.41737,40,105.887,39,1.31737,0\C,37,1.41805,36,124.577,5,5.48683,0\C,52,1.4013,37,124.616,36,-143.352,0\C,53,1.40812,52,116.638,37,2.62046,0\C,24,1.4194,22,110.246,21,-143.104,0\C,55,1.3935,24,106.664,22,-0.531603,0\C,45,1.41959,44,122.475,42,3.15764,0\C,23,1.44041,21,129.458,20,146.258,0\C,56,1.4626,55,113.629,24,-6.37902,0\C,59,1.45421,56,118.526,55,140.813,0\C,60,1.48832,59,63.0816,56,117.169,0\C,61,1.49661,60,122.813,59,-103.708,0\C,62,1.42094,61,120.265,60,-42.5412,0\H,63,1.08567,62,119.717,61,7.48234,0\C,63,1.40934,62,114.444,61,-172.835,0\H,65,1.08594,63,114.485,62,166.293,0\C,65,1.41575,63,122.14,62,-14.8732,0\H,67,1.08603,65,119.165,63,-178.763,0\C,67,1.39347,65,121.15,63,7.97718,0\H,69,1.08578,67,122.136,65,171.968,0\C,69,1.4023,67,118.043,65,4.006,0\H,71,1.08648,69,124.664,67,172.652,0\C,61,1.5097,60,113.189,59,109.553,0\H,73,1.09649,61,114.607,60,-20.0226,0\H,73,1.09704,61,107.437,60,-135.188,0\C,73,1.55796,61,122.555,60,108.274,0\H,76,1.09661,73,114.569,61,23.0834,0\H,76,1.09699,73,106.558,61,133.496,0\C,76,1.52429,73,112.096,61,-98.7762,0\H,79,1.09718,76,109.622,73,-71.0449,0\H,79,1.09754,76,108.373,73,-177.547,0\C,79,1.54501,76,119.517,73,58.9951,0\O,82,1.22394,79,123.59,76,23.7423,0\O,82,1.43018,79,111.606,76,-150.506,0\C,84,1.39196,82,128.969,79,177.954,0\H,85,1.09696,84,112.416,82,-7.51451,0\H,85,1.09716,84,106.919,82,117.843,0\H,85,1.09738,84,105.883,82,-120.714,0\C,1,3.34812,2,121.406,3,124.5,0\C,89,1.39954,1,108.357,2,172.638,0\C,90,1.34919,89,122.688,1,-130.66,0\C,91,1.36798,90,111.395,89,-150.112,0\C,91,1.39202,90,120.089,89,0.520853,0\C,90,1.40321,89,120.067,1,84.9477,0\C,94,1.40046,90,122.106,89,5.49054,0\C,95,1.4049,94,116.597,90,1.93934,0\C,96,1.37094,95,108.297,94,144.627,0\C,97,1.39232,96,108.581,95,-5.85851,0\C,98,1.39526,97,116.892,96,-132.444,0\C,99,1.40173,98,125.22,97,-8.79739,0\C,100,1.34946,99,110.417,98,148.283,0\C,100,1.39109,99,117.911,98,7.64912,0\C,93,1.40526,91,115.361,90,-5.05649,0\C,103,1.3949,93,127.946,91,10.6682,0\C,102,1.40725,100,122.99,99,135.259,0\C,105,1.35806,102,113.31,100,-141.233,0\C,106,1.3776,105,121.259,102,136.138,0\C,107,1.38343,106,121.277,105,-135.846,0\C,108,1.38801,107,121.533,106,-1.94229,0\C,109,1.38973,108,115.865,107,10.3384,0\C,110,1.40515,109,124.473,108,-14.6039,0\C,103,1.4073,93,104.735,91,-140.452,0\C,112,1.39137,103,121.483,93,147.852,0\C,113,1.3899,112,121.511,103,-140.764,0\C,114,1.3813,113,120.381,112,3.63928,0\C,112,1.40247,103,112.764,93,-1.17945,0\C,116,1.40429,112,105.171,103,2.5814,0\C,114,1.40544,113,106.304,112,139.416,0\C,118,1.36573,114,119.017,113,-139.088,0\C,115,1.40749,114,120.476,113,-4.84229,0\C,120,1.38765,115,108.94,114,146.716,0\C,121,1.3852,120,117.45,115,-145.992,0\C,122,1.36929,121,119.725,120,3.27786,0\C,123,1.37069,122,109.798,121,138.455,0\C,124,1.40229,123,107.902,122,-2.28673,0\C,125,1.37707,124,122.318,123,-148.447,0\C,125,1.40519,124,108.084,123,0.319584,0\C,127,1.34732,125,123.138,124,-145.729,0\C,102,1.40874,100,118.303,99,-3.63237,0\C,101,1.41092,100,106.796,99,5.1739,0\C,130,1.40917,101,118.88,100,-144.541,0\C,131,1.38658,130,119.984,101,-1.48349,0\C,132,1.3789,131,108.005,130,140.727,0\C,133,1.39373,132,121.403,131,-145.333,0\C,134,1.38557,133,121.626,132,2.78287,0\C,135,1.39148,134,114.515,133,-0.0487018,0\C,136,1.37664,135,126.395,134,-4.11437,0\C,137,1.40158,136,106.487,135,142.633,0\C,138,1.38109,137,111.099,136,1.07697,0\C,110,1.41179,109,109.846,108,140.681,0\C,130,1.41856,101,110.03,100,-2.62384,0\C,128,1.41923,127,115.282,125,-1.07974,0\C,126,1.42264,125,119.588,124,142.832,0\C,143,1.38533,126,107.577,125,-143.24,0\C,126,1.42667,125,120.223,124,-1.56029,0\C,145,1.41762,126,119.69,125,2.83515,0\C,95,1.44307,94,121.787,90,146.263,0\C,144,1.50434,143,110.674,126,-9.69734,0\C,148,1.46111,144,128.122,143,-150.994,0\C,149,1.50499,148,119.262,144,7.82442,0\H,150,1.09702,149,116.575,148,77.4937,0\H,150,1.09728,149,107.89,148,-23.1374,0\C,150,1.52496,149,116.059,148,-142.788,0\H,153,1.0972,150,116.448,149,55.7874,0\H,153,1.09773,150,108.842,149,-59.4079,0\C,153,1.54721,150,109.55,149,-178.63,0\H,156,1.09711,153,108.535,150,47.2371,0\H,156,1.0973,153,110.502,150,-74.4672,0\C,149,1.54862,148,116.458,144,141.75,0\C,159,1.38996,149,122.618,148,121.84,0\H,160,1.08607,159,112.716,149,-8.22991,0\C,159,1.39055,149,119.29,148,-63.98,0\H,162,1.08629,159,119.277,149,7.56316,0\C,162,1.38748,159,120.049,149,-178.985,0\H,164,1.08598,162,118.153,159,-176.28,0\C,164,1.39024,162,122.428,159,2.19363,0\H,166,1.08617,164,120.178,162,-178.488,0\C,166,1.38133,164,119.747,162,1.12237,0\H,168,1.08619,166,122.442,164,-179.414,0\C,156,1.56484,153,116.403,150,173.883,0\O,170,1.24556,156,121.991,153,-141.665,0\O,170,1.35367,156,111.589,153,35.6295,0\C,172,1.46488,170,121.885,156,175.277,0\H,173,1.09672,172,107.429,170,42.0139,0\H,173,1.09684,172,104.473,170,-73.9742,0\H,173,1.09745,172,108.107,170,168.529,0\\\@

 Total job time:  869.36s(wall), 8225.53s(cpu) 
 Fri Oct 12 15:19:02 2018

        *************************************************************
        *                                                           *
        *  Thank you very much for using Q-Chem.  Have a nice day.  *
        *                                                           *
        *************************************************************


