
Running Job 1 of 1 ./9/27.qcin
qchem ./9/27.qcin_31897.0 /tmpu/cab_g/afmv_a/scratch_qchem/qchem31897/ 1
/tmpu/appuserlic/qchem4.4/serial-multicore/exe/qcprog.exe_s ./9/27.qcin_31897.0 /tmpu/cab_g/afmv_a/scratch_qchem/qchem31897/
Check license passed

                  Welcome to Q-Chem
     A Quantum Leap Into The Future Of Chemistry


 Q-Chem 4.4, Q-Chem, Inc., Pleasanton, CA (2016)

 Y. Shao,  Z. Gan,  E. Epifanovsky,  A. T. B. Gilbert,  M. Wormit,  
 J. Kussmann,  A. W. Lange,  A. Behn,  J. Deng,  X. Feng,  D. Ghosh,  
 M. Goldey,  P. R. Horn,  L. D. Jacobson,  I. Kaliman,  F. Rob,  
 R. Z. Khaliullin,  T. Kus,  A. Landau,  J. Liu,  E. I. Proynov,  Y. M. Rhee,  
 R. M. Richard,  M. A. Rohrdanz,  R. P. Steele,  E. J. Sundstrom,  
 H. L. Woodcock III,  P. M. Zimmerman,  D. Zuev,  B. Albrecht,  E. Alguire,  
 B. Austin,  S. A. Baeppler,  G. J. O. Beran,  Y. A. Bernard,  E. Berquist,  
 K. Brandhorst,  K. B. Bravaya,  S. T. Brown,  D. Casanova,  C.-M. Chang,  
 Y. Chen,  S. H. Chien,  K. D. Closser,  M. P. Coons,  D. L. Crittenden,  
 S. Dasgupta,  M. Diedenhofen,  R. A. DiStasio Jr.,  H. Do,  A. D. Dutoi,  
 R. G. Edgar,  P.-T. Fang,  S. Fatehi,  Q. Feng,  L. Fusti-Molnar,  
 A. Ghysels,  A. Golubeva-Zadorozhnaya,  J. Gomes,  A. Gunina,  
 M. W. D. Hanson-Heine,  P. H. P. Harbach,  A. W. Hauser,  J. E. Herr,  
 E. G. Hohenstein,  Z. C. Holden,  K. Hui,  T.-C. Jagau,  H. Ji,  B. Kaduk,  
 K. Khistyaev,  Jaehoon Kim,  Jihan Kim,  R. A. King,  P. Klunzinger,  
 K. Koh,  D. Kosenkov,  T. Kowalczyk,  C. M. Krauter,  A. Kunitsa,  
 K. U. Lao,  A. Laurent,  K. V. Lawler,  J. Lee,  D. Lefrancois,  S. Lehtola,  
 S. V. Levchenko,  C. Y. Lin,  Y.-S. Lin,  F. Liu,  E. Livshits,  
 R. C. Lochan,  A. Luenser,  P. Manohar,  S. F. Manzer,  S.-P. Mao,  Y. Mao,  
 N. Mardirossian,  A. V. Marenich,  L. A. Martinez-Martinez,  S. A. Maurer,  
 N. J. Mayhall,  J.-M. Mewes,  A. F. Morrison,  K. Nanda,  T. S. Nguyen-Beck,  
 C. M. Oana,  R. Olivares-Amaya,  D. P. O'Neill,  J. A. Parkhill,  
 T. M. Perrine,  R. Peverati,  P. A. Pieniazek,  F. Plasser,  A. Prociuk,  
 D. R. Rehn,  E. Rosta,  N. J. Russ,  N. Sergueev,  S. M. Sharada,  
 S. Sharma,  D. W. Small,  A. Sodt,  T. Stauch,  T. Stein,  D. Stuck,  
 Y.-C. Su,  A. J. W. Thom,  T. Tsuchimochi,  L. Vogt,  O. Vydrov,  T. Wang,  
 M. A. Watson,  J. Wenzel,  A. White,  C. F. Williams,  V. Vanovschi,  
 K. Yao,  S. Yeganeh,  S. R. Yost,  Z.-Q. You,  I. Y. Zhang,  X. Zhang,  
 Y. Zhao,  B. R. Brooks,  G. K. L. Chan,  D. M. Chipman,  C. J. Cramer,  
 W. A. Goddard III,  M. S. Gordon,  W. J. Hehre,  A. Klamt,  
 H. F. Schaefer III,  M. W. Schmidt,  C. D. Sherrill,  D. G. Truhlar,  
 A. Warshel,  X. Xu,  A. Aspuru-Guzik,  R. Baer,  A. T. Bell,  N. A. Besley,  
 J.-D. Chai,  A. Dreuw,  B. D. Dunietz,  T. R. Furlani,  S. R. Gwaltney,  
 C.-P. Hsu,  Y. Jung,  J. Kong,  D. S. Lambrecht,  W. Liang,  C. Ochsenfeld,  
 V. A. Rassolov,  L. V. Slipchenko,  J. E. Subotnik,  T. Van Voorhis,  
 J. M. Herbert,  A. I. Krylov,  P. M. W. Gill,  M. Head-Gordon

 Contributors to earlier versions of Q-Chem not listed above: 
 R. D. Adamson,  J. Baker,  E. F. C. Byrd,  A. K. Chakraborty,  C.-L. Cheng,  
 H. Dachsel,  R. J. Doerksen,  G. Hawkins,  A. Heyden,  S. Hirata,  
 G. Kedziora,  F. J. Keil,  C. Kelley,  P. P. Korambath,  W. Kurlancheek,  
 A. M. Lee,  M. S. Lee,  D. Liotard,  I. Lotan,  P. E. Maslen,  N. Nair,  
 D. Neuhauser,  R. Olson,  B. Peters,  J. Ritchie,  N. E. Schultz,  
 N. Shenvi,  A. C. Simmonett,  K. S. Thanthiriwatte,  Q. Wu,  W. Zhang

 Please cite Q-Chem as follows:
 Y. Shao et al., Mol. Phys. 113, 184-215 (2015)
 DOI: 10.1080/00268976.2014.952696

 Q-Chem 4.4.2 for Intel X86 Linux

 Parts of Q-Chem use Armadillo 5.200.1 (Boston Tea Smuggler).
 http://arma.sourceforge.net/

 Q-Chem begins on Fri Oct 12 15:34:18 2018  

Host: 
0

     Scratch files written to /tmpu/cab_g/afmv_a/scratch_qchem/qchem31897//
 Dec716 11556_ 22328  22283 4050   
Processing $rem in /tmpu/appuserlic/qchem4.4/serial-multicore/config/preferences.
 MEM_TOTAL  2000 
FILE_GEOM_ORG=        593

Checking the input file for inconsistencies... 	...done.

--------------------------------------------------------------
User input:
--------------------------------------------------------------
$comment
SP
$end

$rem
MEM_STATIC 5000
MEM_TOTAL 20000
JOBTYPE SP
EXCHANGE B3LYP
BASIS 6-31g(d,p)
$end

$molecule
0 1
O         -21.884000     -8.487000    -13.806000
C         -21.802000     -7.886000    -15.132000
H         -20.757000     -7.600000    -15.303000
H         -22.313000     -6.922000    -15.016000
H         -22.184000     -8.612000    -15.859000
O         -20.244000    -10.017000    -14.445000
C         -21.091000     -9.580000    -13.645000
C         -21.326000    -10.289000    -12.277000
H         -20.944000     -9.646000    -11.475000
H         -20.922000    -11.306000    -12.203000
C         -22.824000    -10.452000    -11.953000
H         -23.317000     -9.474000    -11.889000
H         -23.217000    -11.045000    -12.788000
C         -23.163000    -11.374000    -10.697000
H         -23.021000    -12.409000    -11.030000
H         -22.488000    -11.173000     -9.856000
C         -24.695000    -11.205000    -10.276000
C         -25.602000    -12.031000    -11.172000
C         -26.226000    -11.397000    -12.287000
H         -26.109000    -10.393000    -12.686000
C         -27.225000    -12.135000    -13.073000
H         -27.660000    -11.700000    -13.968000
C         -27.675000    -13.435000    -12.690000
H         -28.467000    -13.890000    -13.276000
C         -27.079000    -13.988000    -11.527000
H         -27.397000    -14.973000    -11.198000
C         -26.011000    -13.298000    -10.845000
H         -25.583000    -13.688000     -9.926000
C         -28.569000     -7.685000     -8.877000
C         -29.252000     -9.777000     -7.799000
C         -28.248000     -8.442000     -3.481000
C         -23.848000     -6.455000     -7.692000
C         -25.184000    -10.028000     -3.527000
C         -28.705000     -9.078000     -8.892000
C         -23.398000     -7.361000     -5.106000
C         -29.357000     -7.206000     -5.286000
C         -25.944000    -11.941000     -6.935000
C         -23.144000     -7.727000     -7.474000
C         -25.008000    -11.082000     -8.830000
C         -24.635000    -11.697000     -6.570000
C         -22.985000     -9.500000     -6.157000
C         -23.894000     -7.992000     -3.988000
C         -27.529000    -11.051000     -8.617000
C         -26.103000     -7.880000     -3.036000
C         -25.176000     -9.888000     -9.715000
C         -24.283000     -8.694000     -9.368000
C         -26.255000     -9.322000     -3.023000
C         -26.645000     -5.112000     -5.954000
C         -27.461000     -6.202000     -4.174000
C         -28.504000     -6.099000     -5.121000
C         -29.678000     -7.626000     -6.627000
C         -25.069000     -7.533000     -9.503000
C         -26.270000    -11.516000     -8.224000
C         -29.725000     -9.020000     -6.703000
C         -22.937000     -8.098000     -6.152000
C         -28.496000    -10.962000     -7.644000
C         -24.341000    -11.283000     -5.276000
C         -25.919000     -5.685000     -8.182000
C         -29.187000     -8.388000     -4.566000
C         -24.109000    -11.040000     -7.677000
C         -28.201000     -5.914000     -7.583000
C         -23.510000    -10.158000     -5.062000
C         -26.924000    -11.889000     -5.982000
C         -25.039000     -6.056000     -4.306000
C         -24.002000     -6.124000     -5.294000
C         -26.667000    -11.494000     -4.677000
C         -24.846000     -6.425000     -8.670000
C         -23.418000     -8.800000     -8.273000
C         -25.585000     -5.159000     -6.910000
C         -26.499000     -9.284000     -9.845000
C         -28.628000    -10.646000     -5.191000
C         -23.259000     -9.902000     -7.484000
C         -25.396000    -11.147000     -4.304000
C         -27.229000     -5.963000     -8.622000
C         -27.554000     -9.629000     -3.300000
C         -29.084000     -7.001000     -7.740000
C         -27.358000     -7.322000     -3.347000
C         -28.245000    -11.456000     -6.321000
C         -27.728000    -10.680000     -4.170000
C         -27.626000     -9.877000     -9.318000
C         -26.363000     -7.848000     -9.794000
C         -26.383000     -5.539000     -4.642000
C         -29.384000     -9.481000     -5.439000
C         -23.988000     -9.406000     -3.997000
C         -24.279000     -5.657000     -6.584000
C         -24.938000     -7.166000     -3.499000
C         -27.425000     -7.044000     -9.389000
C         -27.913000     -5.494000     -6.294000
O         -10.858000    -13.963000     -9.780000
C          -9.686000    -14.808000     -9.675000
H          -9.647000    -15.437000     -8.777000
H          -8.797000    -14.171000     -9.586000
H          -9.390000    -15.482000    -10.489000
O         -11.130000    -14.078000    -12.054000
C         -11.380000    -13.570000    -10.940000
C         -12.381000    -12.448000    -10.714000
H         -11.743000    -11.738000    -10.171000
H         -13.133000    -12.961000    -10.102000
C         -13.178000    -11.786000    -11.880000
H         -12.520000    -11.445000    -12.689000
H         -13.831000    -12.480000    -12.424000
C         -13.997000    -10.561000    -11.341000
H         -13.370000     -9.952000    -10.678000
H         -14.259000     -9.914000    -12.188000
C         -15.291000    -11.002000    -10.608000
C         -16.241000    -11.807000    -11.472000
C         -16.995000    -11.159000    -12.496000
H         -16.785000    -10.125000    -12.751000
C         -17.890000    -11.897000    -13.263000
H         -18.436000    -11.359000    -14.034000
C         -17.970000    -13.292000    -13.079000
H         -18.704000    -13.916000    -13.580000
C         -17.246000    -13.914000    -11.984000
H         -17.354000    -14.987000    -11.861000
C         -16.274000    -13.195000    -11.249000
H         -15.750000    -13.647000    -10.412000
C         -19.369000     -8.604000     -7.759000
C         -19.373000    -10.877000     -6.993000
C         -17.887000    -10.120000     -2.826000
C         -14.660000     -6.699000     -7.156000
C         -14.610000    -11.205000     -3.515000
C         -19.164000     -9.967000     -8.040000
C         -13.611000     -8.054000     -4.882000
C         -19.466000     -8.858000     -4.175000
C         -15.817000    -12.661000     -7.167000
C         -13.838000     -7.837000     -7.308000
C         -15.369000    -11.261000     -9.100000
C         -14.563000    -12.043000     -6.961000
C         -13.141000     -9.856000     -6.401000
C         -13.818000     -8.884000     -3.772000
C         -17.640000    -11.662000     -8.304000
C         -15.792000     -9.385000     -2.504000
C         -15.811000     -9.929000     -9.627000
C         -15.096000     -8.681000     -9.198000
C         -15.697000    -10.713000     -2.766000
C         -17.187000     -6.229000     -4.781000
C         -17.525000     -7.694000     -3.059000
C         -18.673000     -7.726000     -3.904000
C         -19.938000     -9.090000     -5.440000
C         -16.044000     -7.634000     -8.984000
C         -16.330000    -12.075000     -8.368000
C         -19.790000    -10.445000     -5.718000
C         -13.258000     -8.469000     -6.174000
C         -18.424000    -11.904000     -7.186000
C         -14.154000    -11.875000     -5.627000
C         -16.892000     -6.170000     -7.193000
C         -19.030000    -10.058000     -3.622000
C         -14.231000    -11.207000     -8.070000
C         -18.956000     -6.996000     -6.214000
C         -13.375000    -10.768000     -5.345000
C         -16.635000    -12.861000     -6.043000
C         -15.289000     -7.221000     -3.588000
C         -14.519000     -7.028000     -4.778000
C         -16.207000    -12.691000     -4.731000
C         -15.797000     -6.693000     -7.938000
C         -14.005000     -8.794000     -8.276000
C         -16.383000     -5.898000     -5.922000
C         -17.211000     -9.516000     -9.413000
C         -18.388000    -12.206000     -4.732000
C         -13.578000    -10.032000     -7.748000
C         -14.916000    -12.161000     -4.491000
C         -18.199000     -6.666000     -7.365000
C         -17.008000    -11.236000     -3.002000
C         -19.703000     -8.157000     -6.461000
C         -17.115000     -8.974000     -2.574000
C         -17.993000    -12.568000     -6.058000
C         -17.218000    -12.186000     -3.950000
C         -18.111000    -10.447000     -8.842000
C         -17.334000     -8.134000     -9.114000
C         -16.610000     -6.777000     -3.596000
C         -19.316000    -11.068000     -4.560000
C         -13.648000    -10.324000     -4.055000
C         -15.023000     -6.285000     -5.877000
C         -14.849000     -8.420000     -2.971000
C         -18.416000     -7.700000     -8.319000
C         -18.439000     -6.784000     -4.921000
$end

--------------------------------------------------------------
 ----------------------------------------------------------------
             Standard Nuclear Orientation (Angstroms)
    I     Atom           X                Y                Z
 ----------------------------------------------------------------
    1      O      -0.8126746493     5.5033676565     3.3923705442
    2      C      -0.7466691260     6.4877823535     4.4660427359
    3      H       0.2520211970     6.4232089787     4.9149412969
    4      H      -1.4012547100     6.0737650648     5.2432044938
    5      H      -0.9747835622     7.4717326016     4.0402085976
    6      O       1.0702224983     6.4883706582     2.4314915620
    7      C       0.1239510911     5.6803694412     2.4224109622
    8      C      -0.0793791098     4.7147134027     1.2159718859
    9      H       0.1568799986     3.6930371808     1.5368088090
   10      H       0.4667807619     4.9856051556     0.3042109234
   11      C      -1.5522153002     4.6416919561     0.7676746356
   12      H      -2.1881915126     4.2682687137     1.5799051073
   13      H      -1.8049255037     5.6760913555     0.5040870114
   14      C      -1.8201963070     3.8706559486    -0.6020810562
   15      H      -1.5071268886     4.5513358343    -1.4026686107
   16      H      -1.2310350010     2.9475967130    -0.6665605343
   17      C      -3.3815021826     3.5870600954    -0.7884230927
   18      C      -4.1035230058     4.8214817945    -1.3008974819
   19      C      -4.7512932878     5.6764844442    -0.3607266832
   20      H      -4.7628860494     5.6525439026     0.7256427100
   21      C      -5.5834332702     6.7866197997    -0.8460961736
   22      H      -6.0273460179     7.4935660324    -0.1513706909
   23      C      -5.8556068151     6.9731495340    -2.2354547377
   24      H      -6.5367841462     7.7700972693    -2.5157345098
   25      C      -5.2502429047     6.0465394221    -3.1234424835
   26      H      -5.4359800956     6.1496687428    -4.1885509470
   27      C      -4.3369854891     5.0426158721    -2.6335992448
   28      H      -3.9080354453     4.2974062434    -3.2973081186
   29      C      -7.8090379304     1.3973529317     1.4381407936
   30      C      -8.2323599639     1.2683516940    -0.9720861950
   31      C      -7.6828182439    -3.3162240468    -1.3112530774
   32      C      -3.3980858349    -0.6716803150     2.6495734314
   33      C      -4.4190888096    -3.0111516995    -2.3885687427
   34      C      -7.7349838485     1.9507295746     0.1546064996
   35      C      -2.9643033894    -2.7583611341     0.8695936706
   36      C      -8.8602646871    -2.0002956821     0.3909673584
   37      C      -4.6928265320     0.9274077771    -2.9028156761
   38      C      -2.5258696741    -0.4699637591     1.4835230895
   39      C      -3.7901433738     2.2447701862    -1.2734840956
   40      C      -3.4573888556     0.3567645973    -2.6697875466
   41      C      -2.1788830244    -1.0309466675    -0.6302880283
   42      C      -3.4228638524    -3.4949211388    -0.1987240075
   43      C      -6.2955847647     2.3125156800    -1.6198148404
   44      C      -5.6739053135    -4.1715560985    -0.7217024695
   45      C      -4.0840707111     2.6274496797     0.1422306092
   46      C      -3.3998098189     1.7609501993     1.2026360420
   47      C      -5.6099235464    -3.6237308410    -2.0627583300
   48      C      -6.4571746229    -2.4708163480     2.8788926882
   49      C      -7.2005158896    -3.6084852065     1.0968968044
   50      C      -8.1923012126    -2.6622364769     1.4378399299
   51      C      -9.0392060615    -0.5734684364     0.4902950761
   52      C      -4.3411149523     1.5336523249     2.2254861396
   53      C      -5.0054841351     1.9886476387    -2.0516769217
   54      C      -8.8737079331     0.0266764595    -0.7601678275
   55      C      -2.3405928738    -1.5689028690     0.6551636627
   56      C      -7.3182222651     1.4895692153    -2.0281170069
   57      C      -3.3015664971    -1.0216191353    -2.7594852519
   58      C      -5.5298026283    -0.2847823418     3.3038932852
   59      C      -8.5568716572    -2.2359338253    -0.9494994763
   60      C      -2.9737020757     1.0701353338    -1.5784932273
   61      C      -7.7822734822    -0.5002765883     2.5977040170
   62      C      -2.6607588164    -1.7330113951    -1.7177230099
   63      C      -5.7216627112     0.1382162091    -3.3386892649
   64      C      -4.8237294357    -3.8066010439     1.5621497115
   65      C      -3.7342690128    -2.9854125748     2.0035820224
   66      C      -5.6001571165    -1.2390878192    -3.4543136739
   67      C      -4.3328291107     0.3256676144     2.9410183080
   68      C      -2.5916299469     0.6991315405     0.7808867916
   69      C      -5.3499347944    -1.6894865982     3.3297682632
   70      C      -5.4728473571     2.6640205880     0.5916824935
   71      C      -7.6335447435    -0.8715090538    -2.7066228223
   72      C      -2.3148920697     0.3710883321    -0.5144933845
   73      C      -4.4180256556    -1.8517381436    -3.1346204003
   74      C      -6.7569460259     0.3677683175     3.0687747645
   75      C      -6.8310539639    -3.1113980383    -2.3863855890
   76      C      -8.4832830325     0.1500482105     1.5625372351
   77      C      -6.9785196875    -3.9585868490    -0.2361765342
   78      C      -7.0712430379     0.4312367103    -2.9642257453
   79      C      -6.7973738162    -1.8962009557    -3.0297662679
   80      C      -6.5267857551     2.5257161643    -0.2855818564
   81      C      -5.5553303394     2.0613307964     1.9005578018
   82      C      -6.2086962300    -3.5454696349     2.0095850319
   83      C      -8.5394739035    -0.9996441051    -1.6327798330
   84      C      -3.3045550710    -2.9437408234    -1.4989225662
   85      C      -4.0047508996    -1.9444256926     2.8991845347
   86      C      -4.6040724765    -4.1418535174     0.2457506082
   87      C      -6.7463090642     1.5019214046     2.3554377965
   88      C      -7.6329870825    -1.8756656910     2.5147378372
   89      O      10.6619068913     2.6583500012    -1.8998672632
   90      C      11.9389102521     2.7520504526    -2.5774487282
   91      H      12.0205997096     2.1586749176    -3.4965778307
   92      H      12.7166909787     2.3331308445    -1.9266227120
   93      H      12.3772957473     3.7223877372    -2.8434406671
   94      O      10.5383790114     4.8231830348    -1.1538620359
   95      C      10.1532611614     3.6343875886    -1.1507590272
   96      C       8.9852066873     3.1131875962    -0.3285909705
   97      H       9.4787860375     2.2765603846     0.1836856480
   98      H       8.2847902553     2.8255990761    -1.1222701657
   99      C       8.1653404230     4.0234528400     0.6369376383
  100      H       8.8096517255     4.5673147204     1.3389370689
  101      H       7.6546255505     4.8566113317     0.1379403970
  102      C       7.1440226215     3.1556530415     1.4528668376
  103      H       7.6350373933     2.2478871303     1.8249482052
  104      H       6.8366285115     3.7196916395     2.3428282531
  105      C       5.8909909538     2.7888378741     0.6152725009
  106      C       5.1215913180     3.9906097241     0.1045968494
  107      C       4.3382766698     4.7708290683     1.0071886381
  108      H       4.4059319027     4.5929674128     2.0758649226
  109      C       3.6077418097     5.8521272911     0.5264902176
  110      H       3.0319308391     6.4183338626     1.2544001327
  111      C       3.7261890989     6.2170847686    -0.8296282430
  112      H       3.1226633583     6.9931676819    -1.2906976435
  113      C       4.4720213188     5.3650369345    -1.7394819611
  114      H       4.5182966855     5.6678723969    -2.7807654351
  115      C       5.2832034628     4.3119215282    -1.2548156116
  116      H       5.8207746266     3.6550108899    -1.9322627735
  117      C       1.3476314731    -0.2897700075     1.2295583788
  118      C       1.6391525729    -0.1377527846    -1.1464061016
  119      C       2.7591263629    -4.4183487945    -1.8995930038
  120      C       5.6789286809    -2.0763861292     3.2826493002
  121      C       6.1946773161    -3.7337790055    -2.2445985863
  122      C       1.7688261659     0.4597480356     0.1161973710
  123      C       6.7884910178    -3.7723585734     1.2826365781
  124      C       1.0881595285    -3.4803432003    -0.4050357638
  125      C       5.4252952632     0.3059090840    -2.2980812618
  126      C       6.6684879705    -1.5976788748     2.3963966405
  127      C       5.7677618294     1.5077416325    -0.2158929475
  128      C       6.5596712747    -0.2533465659    -1.6677637365
  129      C       7.6063081946    -1.7476098126     0.2791264780
  130      C       6.6453338668    -4.4581651138     0.0689544041
  131      C       3.5406907067     1.1746197639    -1.1545313416
  132      C       4.6998267687    -5.2202411693    -1.1099193028
  133      C       5.1626436454     1.5390494882     1.1552995268
  134      C       5.6585208024     0.5962209816     2.2126311930
  135      C       5.0061430324    -4.4893700592    -2.2113959330
  136      C       2.9806018317    -4.1621289015     2.4978160041
  137      C       2.7682787540    -5.1573971646     0.4508394544
  138      C       1.6872039773    -4.2426548047     0.6166005542
  139      C       0.7278692454    -2.1777507352    -0.1808109179
  140      C       4.5546357913     0.1085220578     2.9770241822
  141      C       4.8990945349     1.2459782544    -1.3555587166
  142      C       1.0914306966    -1.4277799759    -1.2946241570
  143      C       7.2714531228    -2.4661066844     1.4455832180
  144      C       2.7398650923     0.3229857317    -1.9005486407
  145      C       6.8634172539    -1.5884215738    -1.9845824597
  146      C       3.3986866020    -1.9978267047     3.5221456023
  147      C       1.6662318463    -3.5846351309    -1.6663289845
  148      C       6.8252842577     0.4156268155    -0.4345057107
  149      C       1.4289849295    -2.3618044513     2.1478790630
  150      C       7.4517452419    -2.3499055390    -0.9916945761
  151      C       4.5843103360    -0.5633513804    -3.0119654241
  152      C       4.9350581573    -5.0931815063     1.3476166656
  153      C       5.7334092838    -4.1553294103     2.0751590526
  154      C       4.9077532342    -1.8810177035    -3.3162155725
  155      C       4.5995111155    -1.2351116986     3.4599740079
  156      C       6.7005891728    -0.3285067261     1.8778085863
  157      C       3.7892099030    -3.3250472264     3.3364489729
  158      C       3.7069526984     1.3395394253     1.2876800447
  159      C       2.6823897284    -1.8245702225    -3.1250142408
  160      C       7.2768419033    -0.3945045800     0.5904337094
  161      C       6.0898522867    -2.4424421938    -2.7752669874
  162      C       2.1919037268    -1.5100137108     2.9840354138
  163      C       3.8030315389    -3.9320773819    -2.7498136203
  164      C       0.8783234976    -1.6156704084     1.0957407748
  165      C       3.3364218991    -5.1661625727    -0.8602141427
  166      C       3.2008341700    -0.5115942766    -2.8955484995
  167      C       3.7905139147    -2.6792429283    -3.2747451786
  168      C       2.9249871601     1.2632861027     0.1106000441
  169      C       3.3628700600     0.5573500482     2.4209235827
  170      C       3.5652262301    -5.1087845013     1.6036597046
  171      C       1.5870577242    -2.3100971747    -2.2588021541
  172      C       7.0435559483    -3.6739795929    -1.1180844506
  173      C       5.1869740940    -3.3692106521     3.1226760603
  174      C       5.5133315816    -5.2571592801     0.0628594370
  175      C       2.1853238983    -0.2192537689     2.3838217201
  176      C       1.8351055737    -3.6875349440     1.8997124191
 ----------------------------------------------------------------
 Molecular Point Group                 C1    NOp =  1
 Largest Abelian Subgroup              C1    NOp =  1
 Nuclear Repulsion Energy = 34782.9409117409 hartrees
 There are      462 alpha and      462 beta electrons
 Requested basis set is 6-31G(d,p)
 There are 676 shells and 2360 basis functions

 Total QAlloc Memory Limit  20000 MB
 Mega-Array Size      4888 MB
 MEM_STATIC part      5000 MB
 A cutoff of  1.0D-08 yielded  37638 shell pairs
 There are    527510 function pairs
 
 -------------------------------------------------------
 OpenMP Integral Computing Module                       
 Release: version 1.0, May 2013, Q-Chem Inc. Pittsburgh 
 -------------------------------------------------------
 Integral Job Info:
 Integral job number is                      11
 Integral operator is                         1
 short-range coefficients                     0
 long-range coefficients              100000000
 Omega coefficients                           0
 if combine SR and LR in K                    0
 Integral screening is                        0
 Integral computing path is                   2
 max size of driver memory is            800000
 size of driver memory is                593474
 size of scratch memory is              2260544
 max col of scratch BK array               1296
 max len of scratch array in speh3          155
 max len of scratch index in speh4           18
 max int batch size is                      520
 min int batch size is                       52
 fixed nKL is                                52
 max L of basis functions is                  2
 order of int derivative is                   0
 number of shells is                        676
 number of basis is                        2360
 number of cartesian basis is              2360
 number of contracted shell pairs         37638
 number of primitive shell pairs         113866
 maxK2 (contraction) of shell pair           36
 max number of K2 of shell pair               1
 max number of CS2 of shell pair           7156
 max number of PS2 of shell pair          34458
 mem total for path MDJ                 1494680
 -------------------------------------------------------
 Smallest overlap matrix eigenvalue = 2.43E-04

 Scale SEOQF with 1.000000e-02/1.000000e-02/1.000000e-01

 Standard Electronic Orientation quadrupole field applied
 Nucleus-field energy     =    -0.0000002269 hartrees
 Guess from superposition of atomic densities
 Warning:  Energy on first SCF cycle will be non-variational
 A restricted hybrid HF-DFT SCF calculation will be
 performed using Pulay DIIS extrapolation
 Exchange:     0.2000 Hartree-Fock + 0.0800 Slater + 0.7200 B88
 Correlation:  0.1900 VWN1RPA + 0.8100 LYP
 Using SG-1 standard quadrature grid
 SCF converges when DIIS error is below 1.0E-05
 using 16 threads for integral computing 
 -------------------------------------------------------
 OpenMP BLAS3 based DFT computing Module                
 Release: version 1.0, May 2013, Q-Chem Inc. Pittsburgh 
 -------------------------------------------------------
 ---------------------------------------
  Cycle       Energy         DIIS Error
 ---------------------------------------
    1   -5858.3176446278      1.83E-02
    2   -5803.1002732680      1.29E-03
    3   -5802.2377601539      1.83E-03
    4   -5803.9399431186      6.63E-04
    5   -5804.1661446351      3.08E-04
    6   -5804.2226438176      1.54E-04
    7   -5804.2396608411      4.71E-05
    8   -5804.2406353353      2.99E-05
    9   -5804.2412995371      9.16E-06 Convergence criterion met
 ---------------------------------------
 SCF time:  CPU 8251.85 s  wall 849.12 s
 SCF   energy in the final basis set = -5804.2412995371
 Total energy in the final basis set = -5804.2412995371
 
 --------------------------------------------------------------
 
                    Orbital Energies (a.u.)
 --------------------------------------------------------------
 
 Alpha MOs
 -- Occupied --
-19.210 -19.202 -19.147 -19.125 -10.331 -10.316 -10.256 -10.251
-10.242 -10.241 -10.240 -10.237 -10.235 -10.233 -10.231 -10.229
-10.227 -10.226 -10.225 -10.225 -10.224 -10.223 -10.222 -10.221
-10.220 -10.220 -10.220 -10.220 -10.219 -10.219 -10.219 -10.218
-10.218 -10.218 -10.218 -10.218 -10.218 -10.217 -10.217 -10.217
-10.217 -10.217 -10.217 -10.217 -10.217 -10.217 -10.216 -10.216
-10.216 -10.216 -10.216 -10.216 -10.216 -10.216 -10.216 -10.216
-10.216 -10.216 -10.216 -10.215 -10.215 -10.215 -10.215 -10.215
-10.215 -10.215 -10.214 -10.214 -10.214 -10.214 -10.214 -10.214
-10.214 -10.214 -10.214 -10.213 -10.213 -10.213 -10.213 -10.213
-10.213 -10.213 -10.213 -10.213 -10.213 -10.213 -10.212 -10.212
-10.212 -10.212 -10.212 -10.212 -10.212 -10.212 -10.212 -10.211
-10.211 -10.211 -10.211 -10.211 -10.211 -10.211 -10.211 -10.210
-10.210 -10.210 -10.210 -10.210 -10.210 -10.210 -10.210 -10.210
-10.210 -10.210 -10.209 -10.209 -10.209 -10.209 -10.209 -10.209
-10.209 -10.208 -10.208 -10.208 -10.208 -10.208 -10.208 -10.208
-10.207 -10.207 -10.207 -10.207 -10.207 -10.206 -10.206 -10.205
-10.205 -10.205 -10.205 -10.204 -10.203 -10.201 -10.200 -10.199
-10.197 -10.196 -10.195 -10.191  -1.102  -1.097  -1.013  -0.992
 -0.986  -0.982  -0.968  -0.965  -0.964  -0.963  -0.962  -0.961
 -0.937  -0.933  -0.930  -0.927  -0.926  -0.926  -0.924  -0.922
 -0.921  -0.919  -0.900  -0.896  -0.890  -0.890  -0.885  -0.885
 -0.878  -0.872  -0.848  -0.846  -0.842  -0.839  -0.838  -0.837
 -0.836  -0.836  -0.821  -0.819  -0.804  -0.801  -0.800  -0.797
 -0.797  -0.796  -0.793  -0.793  -0.790  -0.790  -0.784  -0.781
 -0.772  -0.771  -0.770  -0.769  -0.765  -0.764  -0.764  -0.762
 -0.750  -0.744  -0.743  -0.738  -0.735  -0.731  -0.721  -0.717
 -0.715  -0.714  -0.714  -0.713  -0.711  -0.710  -0.710  -0.709
 -0.706  -0.705  -0.704  -0.704  -0.702  -0.702  -0.677  -0.673
 -0.659  -0.659  -0.657  -0.656  -0.648  -0.648  -0.633  -0.633
 -0.628  -0.626  -0.624  -0.623  -0.622  -0.619  -0.617  -0.617
 -0.615  -0.614  -0.613  -0.612  -0.610  -0.608  -0.607  -0.606
 -0.605  -0.603  -0.603  -0.602  -0.572  -0.571  -0.566  -0.564
 -0.560  -0.560  -0.559  -0.558  -0.557  -0.557  -0.554  -0.552
 -0.538  -0.536  -0.533  -0.532  -0.529  -0.526  -0.525  -0.525
 -0.524  -0.523  -0.519  -0.517  -0.515  -0.513  -0.513  -0.512
 -0.507  -0.502  -0.502  -0.501  -0.495  -0.492  -0.492  -0.487
 -0.486  -0.485  -0.484  -0.482  -0.481  -0.479  -0.478  -0.475
 -0.474  -0.473  -0.470  -0.469  -0.468  -0.467  -0.467  -0.466
 -0.465  -0.464  -0.464  -0.463  -0.463  -0.462  -0.459  -0.457
 -0.455  -0.453  -0.453  -0.452  -0.452  -0.447  -0.444  -0.442
 -0.441  -0.440  -0.439  -0.438  -0.436  -0.435  -0.433  -0.432
 -0.432  -0.431  -0.428  -0.427  -0.427  -0.426  -0.424  -0.424
 -0.423  -0.422  -0.421  -0.420  -0.419  -0.418  -0.418  -0.417
 -0.416  -0.415  -0.414  -0.414  -0.413  -0.413  -0.412  -0.412
 -0.411  -0.410  -0.409  -0.405  -0.401  -0.400  -0.400  -0.397
 -0.395  -0.391  -0.391  -0.388  -0.387  -0.387  -0.385  -0.384
 -0.381  -0.376  -0.372  -0.370  -0.369  -0.369  -0.367  -0.366
 -0.365  -0.365  -0.363  -0.361  -0.360  -0.358  -0.358  -0.356
 -0.355  -0.355  -0.355  -0.354  -0.353  -0.353  -0.351  -0.350
 -0.350  -0.349  -0.348  -0.346  -0.346  -0.345  -0.344  -0.343
 -0.340  -0.340  -0.340  -0.338  -0.338  -0.337  -0.335  -0.333
 -0.333  -0.329  -0.328  -0.328  -0.327  -0.326  -0.326  -0.325
 -0.316  -0.312  -0.307  -0.294  -0.288  -0.287  -0.275  -0.275
 -0.270  -0.269  -0.269  -0.266  -0.264  -0.264  -0.262  -0.262
 -0.260  -0.259  -0.257  -0.257  -0.256  -0.254  -0.254  -0.252
 -0.249  -0.247  -0.244  -0.241  -0.222  -0.219  -0.212  -0.211
 -0.209  -0.207  -0.205  -0.203  -0.201  -0.200
 -- Virtual --
 -0.123  -0.122  -0.118  -0.116  -0.112  -0.106  -0.079  -0.076
 -0.073  -0.071  -0.060  -0.059  -0.055  -0.051  -0.024  -0.023
 -0.022  -0.021  -0.019  -0.018  -0.016  -0.016  -0.014  -0.014
 -0.013  -0.010  -0.008  -0.007  -0.006  -0.006  -0.005   0.005
  0.008   0.014   0.035   0.039   0.041   0.042   0.043   0.045
  0.048   0.053   0.054   0.057   0.062   0.064   0.068   0.070
  0.071   0.075   0.076   0.080   0.083   0.085   0.087   0.092
  0.092   0.096   0.097   0.100   0.101   0.102   0.103   0.105
  0.107   0.108   0.109   0.111   0.114   0.115   0.117   0.118
  0.123   0.125   0.126   0.129   0.131   0.131   0.136   0.137
  0.139   0.140   0.142   0.145   0.148   0.151   0.155   0.155
  0.157   0.158   0.160   0.161   0.162   0.164   0.165   0.168
  0.169   0.171   0.172   0.176   0.177   0.177   0.179   0.182
  0.183   0.184   0.186   0.187   0.191   0.193   0.194   0.194
  0.195   0.197   0.198   0.199   0.200   0.204   0.205   0.206
  0.208   0.209   0.211   0.213   0.214   0.215   0.217   0.218
  0.219   0.221   0.222   0.223   0.225   0.226   0.227   0.228
  0.228   0.229   0.232   0.233   0.236   0.237   0.237   0.241
  0.243   0.245   0.246   0.247   0.249   0.249   0.251   0.255
  0.259   0.264   0.267   0.269   0.273   0.275   0.276   0.277
  0.280   0.281   0.283   0.284   0.286   0.292   0.298   0.302
  0.305   0.307   0.309   0.312   0.313   0.315   0.317   0.321
  0.321   0.322   0.323   0.325   0.326   0.327   0.329   0.333
  0.335   0.339   0.341   0.341   0.344   0.346   0.347   0.349
  0.354   0.354   0.367   0.369   0.372   0.378   0.386   0.391
  0.395   0.397   0.399   0.404   0.405   0.406   0.407   0.409
  0.413   0.414   0.416   0.417   0.418   0.420   0.421   0.425
  0.426   0.429   0.432   0.434   0.437   0.441   0.446   0.448
  0.449   0.451   0.454   0.456   0.456   0.461   0.462   0.463
  0.465   0.468   0.470   0.472   0.474   0.475   0.477   0.478
  0.479   0.479   0.481   0.482   0.483   0.484   0.485   0.486
  0.487   0.488   0.488   0.490   0.491   0.492   0.493   0.494
  0.496   0.496   0.499   0.499   0.500   0.501   0.501   0.504
  0.504   0.505   0.507   0.508   0.508   0.510   0.511   0.512
  0.512   0.513   0.514   0.514   0.516   0.516   0.517   0.519
  0.520   0.521   0.522   0.522   0.523   0.524   0.525   0.527
  0.527   0.528   0.529   0.529   0.531   0.531   0.532   0.532
  0.533   0.534   0.536   0.536   0.536   0.537   0.537   0.539
  0.539   0.540   0.541   0.541   0.542   0.544   0.544   0.545
  0.546   0.546   0.548   0.548   0.549   0.549   0.550   0.551
  0.552   0.552   0.553   0.554   0.555   0.556   0.557   0.557
  0.558   0.558   0.559   0.560   0.561   0.562   0.562   0.564
  0.564   0.565   0.566   0.567   0.568   0.568   0.569   0.570
  0.571   0.572   0.573   0.573   0.575   0.576   0.577   0.577
  0.578   0.579   0.580   0.580   0.581   0.582   0.583   0.585
  0.586   0.586   0.588   0.588   0.588   0.589   0.590   0.591
  0.592   0.593   0.594   0.595   0.595   0.596   0.596   0.597
  0.599   0.601   0.602   0.603   0.603   0.606   0.607   0.608
  0.609   0.610   0.612   0.612   0.613   0.615   0.615   0.617
  0.617   0.617   0.618   0.620   0.620   0.622   0.623   0.624
  0.624   0.626   0.628   0.628   0.629   0.631   0.632   0.633
  0.634   0.635   0.635   0.636   0.637   0.639   0.640   0.640
  0.640   0.643   0.644   0.645   0.646   0.649   0.650   0.651
  0.651   0.652   0.653   0.654   0.655   0.656   0.657   0.657
  0.659   0.659   0.660   0.662   0.662   0.663   0.664   0.665
  0.665   0.667   0.667   0.668   0.668   0.669   0.669   0.671
  0.672   0.672   0.672   0.675   0.675   0.676   0.677   0.678
  0.680   0.681   0.682   0.684   0.685   0.686   0.687   0.687
  0.689   0.690   0.691   0.693   0.693   0.695   0.695   0.697
  0.699   0.699   0.700   0.702   0.704   0.705   0.705   0.707
  0.708   0.709   0.710   0.712   0.712   0.713   0.714   0.716
  0.717   0.719   0.721   0.721   0.722   0.724   0.724   0.726
  0.727   0.727   0.729   0.730   0.731   0.732   0.733   0.735
  0.735   0.737   0.737   0.738   0.739   0.743   0.743   0.745
  0.745   0.747   0.749   0.751   0.752   0.753   0.755   0.756
  0.757   0.758   0.760   0.760   0.763   0.763   0.764   0.766
  0.767   0.768   0.770   0.771   0.772   0.773   0.774   0.777
  0.778   0.778   0.779   0.780   0.783   0.784   0.784   0.787
  0.788   0.789   0.790   0.791   0.792   0.794   0.795   0.796
  0.798   0.799   0.799   0.800   0.801   0.801   0.802   0.803
  0.805   0.806   0.806   0.807   0.808   0.809   0.810   0.810
  0.811   0.813   0.813   0.814   0.815   0.816   0.817   0.818
  0.818   0.819   0.820   0.821   0.823   0.823   0.824   0.825
  0.826   0.826   0.828   0.829   0.829   0.833   0.833   0.834
  0.836   0.838   0.839   0.840   0.842   0.846   0.846   0.850
  0.851   0.853   0.854   0.856   0.856   0.860   0.862   0.867
  0.871   0.874   0.876   0.878   0.879   0.884   0.885   0.889
  0.890   0.892   0.894   0.898   0.900   0.902   0.905   0.908
  0.909   0.912   0.915   0.918   0.920   0.922   0.926   0.927
  0.927   0.929   0.930   0.931   0.933   0.934   0.936   0.938
  0.939   0.940   0.943   0.944   0.944   0.946   0.947   0.949
  0.950   0.951   0.958   0.962   0.964   0.966   0.970   0.972
  0.973   0.977   0.978   0.982   0.985   0.987   0.989   0.992
  0.994   0.996   0.997   0.999   1.001   1.002   1.003   1.005
  1.006   1.008   1.009   1.013   1.014   1.016   1.017   1.019
  1.020   1.021   1.022   1.025   1.026   1.028   1.030   1.031
  1.033   1.034   1.034   1.037   1.038   1.039   1.041   1.042
  1.044   1.046   1.047   1.048   1.049   1.052   1.053   1.055
  1.061   1.061   1.062   1.064   1.066   1.068   1.069   1.070
  1.071   1.073   1.075   1.076   1.077   1.078   1.079   1.080
  1.085   1.086   1.087   1.090   1.090   1.091   1.095   1.096
  1.098   1.099   1.101   1.102   1.105   1.105   1.109   1.112
  1.113   1.114   1.116   1.121   1.122   1.123   1.125   1.128
  1.130   1.133   1.135   1.137   1.138   1.141   1.142   1.144
  1.146   1.151   1.152   1.154   1.156   1.158   1.160   1.160
  1.163   1.165   1.165   1.167   1.168   1.170   1.171   1.173
  1.174   1.177   1.179   1.180   1.182   1.183   1.184   1.186
  1.186   1.189   1.192   1.193   1.194   1.197   1.198   1.200
  1.201   1.204   1.207   1.208   1.209   1.210   1.216   1.222
  1.225   1.228   1.229   1.230   1.233   1.236   1.237   1.239
  1.245   1.247   1.247   1.252   1.255   1.256   1.261   1.262
  1.265   1.266   1.267   1.269   1.271   1.274   1.274   1.277
  1.278   1.280   1.280   1.283   1.284   1.286   1.287   1.289
  1.290   1.293   1.295   1.297   1.300   1.302   1.305   1.307
  1.310   1.312   1.316   1.316   1.320   1.323   1.328   1.329
  1.330   1.333   1.336   1.336   1.340   1.343   1.346   1.349
  1.350   1.354   1.355   1.356   1.357   1.361   1.364   1.365
  1.369   1.371   1.372   1.373   1.376   1.377   1.381   1.383
  1.384   1.388   1.392   1.393   1.395   1.396   1.401   1.401
  1.404   1.406   1.411   1.412   1.412   1.418   1.421   1.424
  1.428   1.429   1.432   1.435   1.441   1.444   1.446   1.449
  1.451   1.454   1.454   1.455   1.456   1.458   1.463   1.464
  1.466   1.468   1.469   1.471   1.473   1.474   1.476   1.478
  1.481   1.482   1.483   1.484   1.488   1.490   1.494   1.496
  1.499   1.503   1.505   1.506   1.511   1.512   1.513   1.517
  1.520   1.520   1.523   1.527   1.530   1.530   1.534   1.536
  1.538   1.540   1.543   1.546   1.546   1.547   1.549   1.556
  1.556   1.558   1.562   1.563   1.564   1.567   1.567   1.571
  1.572   1.572   1.575   1.578   1.580   1.585   1.588   1.590
  1.595   1.600   1.602   1.605   1.607   1.610   1.610   1.618
  1.622   1.623   1.629   1.631   1.634   1.636   1.640   1.646
  1.648   1.649   1.654   1.658   1.661   1.662   1.667   1.672
  1.673   1.675   1.681   1.688   1.689   1.690   1.693   1.694
  1.698   1.701   1.704   1.706   1.709   1.712   1.715   1.717
  1.718   1.719   1.721   1.725   1.727   1.729   1.730   1.734
  1.735   1.735   1.738   1.740   1.743   1.743   1.744   1.745
  1.747   1.748   1.749   1.751   1.754   1.756   1.758   1.758
  1.760   1.761   1.762   1.763   1.764   1.767   1.767   1.769
  1.770   1.771   1.772   1.773   1.774   1.776   1.777   1.777
  1.779   1.780   1.781   1.785   1.786   1.786   1.788   1.789
  1.790   1.791   1.792   1.793   1.796   1.796   1.797   1.798
  1.800   1.801   1.802   1.803   1.804   1.804   1.805   1.806
  1.808   1.811   1.812   1.813   1.814   1.817   1.818   1.820
  1.821   1.822   1.825   1.826   1.830   1.831   1.836   1.837
  1.840   1.844   1.847   1.850   1.853   1.854   1.855   1.858
  1.859   1.861   1.862   1.865   1.866   1.867   1.868   1.870
  1.871   1.872   1.875   1.875   1.877   1.878   1.881   1.882
  1.885   1.886   1.891   1.892   1.894   1.895   1.897   1.901
  1.904   1.907   1.909   1.910   1.912   1.915   1.917   1.918
  1.919   1.924   1.925   1.927   1.928   1.928   1.932   1.933
  1.933   1.935   1.938   1.940   1.941   1.942   1.944   1.950
  1.950   1.951   1.954   1.954   1.955   1.956   1.958   1.960
  1.962   1.968   1.969   1.972   1.974   1.975   1.978   1.979
  1.979   1.982   1.982   1.984   1.986   1.987   1.989   1.990
  1.992   1.994   1.996   1.999   1.999   2.001   2.002   2.002
  2.003   2.005   2.006   2.007   2.010   2.011   2.012   2.016
  2.016   2.017   2.018   2.020   2.021   2.022   2.022   2.025
  2.025   2.028   2.028   2.029   2.030   2.031   2.032   2.035
  2.035   2.037   2.038   2.039   2.041   2.042   2.044   2.044
  2.046   2.046   2.048   2.049   2.050   2.051   2.053   2.054
  2.055   2.056   2.058   2.062   2.062   2.063   2.065   2.066
  2.067   2.068   2.069   2.071   2.072   2.073   2.074   2.074
  2.076   2.079   2.081   2.082   2.085   2.086   2.087   2.090
  2.091   2.092   2.095   2.097   2.099   2.102   2.103   2.104
  2.106   2.108   2.109   2.110   2.115   2.116   2.118   2.121
  2.121   2.124   2.126   2.130   2.134   2.137   2.138   2.142
  2.144   2.148   2.151   2.154   2.159   2.161   2.164   2.166
  2.168   2.174   2.183   2.185   2.189   2.197   2.205   2.207
  2.210   2.211   2.211   2.216   2.217   2.219   2.221   2.222
  2.224   2.228   2.229   2.230   2.237   2.239   2.241   2.243
  2.244   2.251   2.255   2.257   2.258   2.259   2.263   2.264
  2.266   2.270   2.270   2.274   2.275   2.277   2.278   2.281
  2.284   2.285   2.288   2.289   2.291   2.292   2.294   2.297
  2.299   2.302   2.305   2.307   2.309   2.312   2.314   2.315
  2.316   2.318   2.320   2.326   2.330   2.330   2.337   2.337
  2.339   2.340   2.343   2.345   2.347   2.351   2.353   2.357
  2.359   2.360   2.361   2.362   2.363   2.366   2.367   2.369
  2.372   2.374   2.375   2.377   2.380   2.381   2.381   2.384
  2.385   2.386   2.387   2.388   2.389   2.392   2.394   2.394
  2.397   2.400   2.400   2.402   2.403   2.405   2.408   2.409
  2.411   2.413   2.414   2.416   2.417   2.420   2.421   2.423
  2.426   2.428   2.430   2.431   2.433   2.435   2.439   2.446
  2.448   2.450   2.452   2.455   2.457   2.458   2.459   2.463
  2.464   2.466   2.468   2.472   2.473   2.475   2.476   2.478
  2.481   2.482   2.482   2.486   2.487   2.488   2.489   2.492
  2.492   2.495   2.496   2.498   2.500   2.501   2.503   2.508
  2.509   2.509   2.512   2.513   2.515   2.517   2.520   2.521
  2.524   2.525   2.526   2.527   2.529   2.533   2.535   2.537
  2.537   2.540   2.543   2.545   2.548   2.548   2.554   2.558
  2.566   2.568   2.569   2.571   2.575   2.578   2.578   2.582
  2.588   2.589   2.589   2.593   2.596   2.597   2.599   2.599
  2.601   2.603   2.605   2.609   2.610   2.610   2.614   2.615
  2.617   2.620   2.621   2.624   2.625   2.627   2.628   2.632
  2.635   2.635   2.636   2.639   2.640   2.641   2.644   2.645
  2.647   2.648   2.650   2.652   2.653   2.654   2.659   2.661
  2.662   2.664   2.665   2.665   2.668   2.669   2.670   2.672
  2.673   2.676   2.677   2.678   2.682   2.683   2.684   2.686
  2.688   2.689   2.693   2.693   2.696   2.697   2.698   2.701
  2.706   2.708   2.710   2.713   2.716   2.717   2.720   2.720
  2.724   2.726   2.729   2.731   2.731   2.735   2.736   2.739
  2.744   2.744   2.747   2.748   2.752   2.757   2.758   2.761
  2.761   2.764   2.765   2.766   2.769   2.770   2.771   2.774
  2.777   2.778   2.779   2.780   2.783   2.787   2.789   2.791
  2.792   2.795   2.798   2.802   2.804   2.811   2.812   2.818
  2.819   2.823   2.825   2.827   2.829   2.831   2.835   2.838
  2.842   2.846   2.848   2.851   2.854   2.859   2.860   2.861
  2.862   2.865   2.867   2.869   2.869   2.873   2.875   2.876
  2.877   2.877   2.881   2.882   2.883   2.885   2.887   2.887
  2.891   2.892   2.895   2.898   2.899   2.900   2.902   2.903
  2.905   2.906   2.911   2.912   2.914   2.916   2.920   2.921
  2.923   2.925   2.926   2.928   2.928   2.929   2.930   2.931
  2.934   2.936   2.939   2.943   2.944   2.946   2.947   2.949
  2.951   2.955   2.962   2.963   2.966   2.969   2.972   2.974
  2.979   2.980   2.987   2.989   2.993   2.998   3.001   3.003
  3.004   3.006   3.008   3.012   3.014   3.015   3.017   3.019
  3.023   3.024   3.026   3.027   3.031   3.035   3.038   3.040
  3.045   3.050   3.052   3.054   3.057   3.060   3.062   3.066
  3.066   3.070   3.073   3.081   3.086   3.089   3.092   3.105
  3.111   3.112   3.115   3.118   3.124   3.131   3.132   3.145
  3.147   3.150   3.156   3.161   3.166   3.168   3.184   3.191
  3.197   3.201   3.210   3.212   3.224   3.228   3.236   3.237
  3.240   3.257   3.257   3.260   3.270   3.271   3.273   3.284
  3.288   3.289   3.299   3.305   3.307   3.313   3.319   3.319
  3.334   3.336   3.340   3.351   3.352   3.353   3.365   3.370
  3.391   3.406   3.414   3.421   3.421   3.423   3.444   3.450
  3.457   3.464   3.467   3.469   3.470   3.478   3.483   3.485
  3.486   3.497   3.503   3.512   3.516   3.517   3.540   3.548
  3.554   3.559   3.562   3.568   3.576   3.576   3.586   3.602
  3.612   3.624   3.676   3.696   3.804   3.838   3.973   3.985
  4.072   4.074   4.076   4.080   4.082   4.090   4.091   4.094
  4.098   4.100   4.103   4.107   4.109   4.113   4.114   4.116
  4.124   4.127   4.134   4.137   4.142   4.148   4.149   4.151
  4.155   4.156   4.158   4.161   4.165   4.167   4.172   4.181
  4.185   4.191   4.193   4.199   4.201   4.215   4.236   4.240
  4.240   4.244   4.245   4.251   4.255   4.256   4.262   4.267
  4.269   4.278   4.279   4.284   4.291   4.295   4.297   4.302
  4.305   4.311   4.320   4.331   4.374   4.384   4.391   4.391
  4.397   4.398   4.401   4.406   4.408   4.408   4.412   4.418
  4.422   4.425   4.428   4.433   4.435   4.448   4.453   4.469
  4.480   4.487   4.502   4.505   4.530   4.536   4.552   4.554
  4.557   4.565   4.609   4.617   4.621   4.631   4.634   4.638
  4.642   4.645   4.674   4.686   4.692   4.696   4.700   4.702
  4.705   4.710   4.713   4.717   4.753   4.754   4.783   4.794
  4.815   4.834   4.858   4.864   4.877   4.885   4.892   4.897
  4.906   4.907   4.954   4.962   4.967   4.973   4.976   4.984
  4.994   4.998   5.001   5.018   5.165   5.170   5.183   5.195
  5.203   5.210   5.216   5.219   5.319   5.329   5.337   5.355
  5.367   5.369
 --------------------------------------------------------------
 
          Ground-State Mulliken Net Atomic Charges

     Atom                 Charge (a.u.)
  ----------------------------------------
      1 O                    -0.455662
      2 C                    -0.088437
      3 H                     0.139068
      4 H                     0.129397
      5 H                     0.140204
      6 O                    -0.487981
      7 C                     0.605512
      8 C                    -0.252692
      9 H                     0.136179
     10 H                     0.133037
     11 C                    -0.192986
     12 H                     0.121254
     13 H                     0.107807
     14 C                    -0.201478
     15 H                     0.115141
     16 H                     0.110225
     17 C                     0.028239
     18 C                     0.086608
     19 C                    -0.113679
     20 H                     0.099030
     21 C                    -0.104800
     22 H                     0.088723
     23 C                    -0.075609
     24 H                     0.097867
     25 C                    -0.096715
     26 H                     0.093924
     27 C                    -0.112349
     28 H                     0.089733
     29 C                    -0.007470
     30 C                     0.004842
     31 C                    -0.034141
     32 C                    -0.029566
     33 C                     0.021253
     34 C                    -0.019370
     35 C                     0.038432
     36 C                    -0.005437
     37 C                     0.024885
     38 C                    -0.029350
     39 C                    -0.100823
     40 C                     0.014502
     41 C                    -0.020115
     42 C                    -0.020050
     43 C                     0.016220
     44 C                    -0.018539
     45 C                    -0.091969
     46 C                     0.011140
     47 C                     0.005816
     48 C                    -0.015140
     49 C                     0.040863
     50 C                    -0.032221
     51 C                    -0.011814
     52 C                     0.003784
     53 C                     0.046183
     54 C                     0.003160
     55 C                     0.018308
     56 C                     0.000263
     57 C                    -0.019263
     58 C                     0.008375
     59 C                     0.000691
     60 C                     0.017574
     61 C                    -0.015595
     62 C                     0.004652
     63 C                    -0.010498
     64 C                    -0.008028
     65 C                    -0.008338
     66 C                    -0.000869
     67 C                     0.001240
     68 C                     0.062307
     69 C                    -0.000965
     70 C                     0.044883
     71 C                    -0.012543
     72 C                    -0.029169
     73 C                    -0.021855
     74 C                    -0.015200
     75 C                     0.012355
     76 C                     0.011271
     77 C                     0.006382
     78 C                    -0.045943
     79 C                     0.037903
     80 C                     0.006170
     81 C                     0.004456
     82 C                    -0.009718
     83 C                     0.006111
     84 C                     0.006553
     85 C                    -0.011686
     86 C                    -0.007187
     87 C                     0.016546
     88 C                     0.029021
     89 O                    -0.442749
     90 C                    -0.099902
     91 H                     0.128640
     92 H                     0.123080
     93 H                     0.145103
     94 O                    -0.493565
     95 C                     0.564775
     96 C                    -0.232387
     97 H                     0.130238
     98 H                     0.137473
     99 C                    -0.188637
    100 H                     0.109207
    101 H                     0.127842
    102 C                    -0.187117
    103 H                     0.106204
    104 H                     0.112064
    105 C                     0.017914
    106 C                     0.077981
    107 C                    -0.104524
    108 H                     0.092535
    109 C                    -0.094321
    110 H                     0.134625
    111 C                    -0.096872
    112 H                     0.091192
    113 C                    -0.104385
    114 H                     0.089286
    115 C                    -0.098536
    116 H                     0.097161
    117 C                    -0.016130
    118 C                     0.001882
    119 C                    -0.002400
    120 C                    -0.019915
    121 C                    -0.006527
    122 C                    -0.023709
    123 C                     0.017045
    124 C                    -0.005840
    125 C                    -0.017730
    126 C                     0.012637
    127 C                    -0.064639
    128 C                     0.012263
    129 C                    -0.000760
    130 C                    -0.012146
    131 C                     0.047698
    132 C                     0.014242
    133 C                    -0.084254
    134 C                    -0.001683
    135 C                    -0.000379
    136 C                     0.006289
    137 C                    -0.004776
    138 C                     0.002027
    139 C                     0.010525
    140 C                    -0.006599
    141 C                     0.001082
    142 C                     0.028753
    143 C                    -0.027030
    144 C                    -0.006481
    145 C                     0.013573
    146 C                     0.014281
    147 C                    -0.003863
    148 C                     0.042866
    149 C                    -0.008707
    150 C                     0.002997
    151 C                     0.021045
    152 C                     0.002788
    153 C                     0.023189
    154 C                    -0.012030
    155 C                     0.006783
    156 C                     0.025387
    157 C                    -0.016495
    158 C                     0.025692
    159 C                    -0.044429
    160 C                    -0.038187
    161 C                    -0.009455
    162 C                    -0.016316
    163 C                     0.005780
    164 C                     0.011645
    165 C                     0.007860
    166 C                    -0.011763
    167 C                     0.035692
    168 C                    -0.018547
    169 C                     0.028152
    170 C                    -0.029839
    171 C                    -0.032235
    172 C                    -0.020098
    173 C                    -0.007021
    174 C                    -0.007915
    175 C                    -0.013304
    176 C                     0.013869
  ----------------------------------------
  Sum of atomic charges =     0.000000

 -----------------------------------------------------------------
                    Cartesian Multipole Moments
 -----------------------------------------------------------------
    Charge (ESU x 10^10)
                 0.0000
    Dipole Moment (Debye)
         X       0.0534      Y       2.7763      Z       0.1310
       Tot       2.7799
    Quadrupole Moments (Debye-Ang)
        XX    -808.4734     XY     -38.3231     YY    -808.3254
        XZ      -6.4327     YZ       7.9286     ZZ    -789.4046
    Octopole Moments (Debye-Ang^2)
       XXX     554.0362    XXY     -26.4374    XYY    -301.0302
       YYY     272.1315    XXZ    -128.6567    XYZ       5.6985
       YYZ      50.4595    XZZ     104.5584    YZZ     224.1545
       ZZZ      34.9064
    Hexadecapole Moments (Debye-Ang^3)
      XXXX -141580.5749   XXXY   -1798.8398   XXYY  -34162.5023
      XYYY   -2193.8214   YYYY  -49274.7446   XXXZ   -1979.8721
      XXYZ     -98.4395   XYYZ      40.8990   YYYZ     486.7487
      XXZZ  -26768.3901   XYZZ     198.8221   YYZZ  -10811.3434
      XZZZ    -398.8494   YZZZ     460.0731   ZZZZ  -19514.8323
 -----------------------------------------------------------------
Archival summary:
1\1\mn251\SP\ProcedureUnspecified\6-31G**\428\afmv_a\FriOct1215:48:432018FriOct1215:48:432018\0\\#,ProcedureUnspecified,6-31G**,\\0,1\C\C,1,1.36463\C,2,1.36558,1,105.834\C,3,1.38859,2,112.149,1,5.82813,0\C,4,1.36008,3,122.472,2,140.777,0\C,5,1.37626,4,119.898,3,-141.773,0\C,5,1.38936,4,121.718,3,5.95516,0\C,2,1.39946,1,125.844,3,151.002,0\C,7,1.39961,5,120.519,4,-6.59728,0\C,4,1.40283,3,104.983,2,-4.70601,0\C,10,1.38116,4,119.098,3,145.99,0\C,11,1.3886,10,118.744,4,-0.740433,0\C,8,1.40852,2,118.839,1,-135.173,0\C,13,1.36321,8,111.081,2,133.511,0\C,14,1.39222,13,121.907,8,-149.671,0\C,15,1.33988,14,121.39,13,4.14216,0\C,13,1.40402,8,120.33,2,-9.27872,0\C,17,1.39179,13,120.342,8,141.106,0\C,17,1.39764,13,120.773,8,0.257581,0\C,15,1.40775,14,117.564,13,137.449,0\C,20,1.3997,15,121.885,14,6.32045,0\C,21,1.408,20,121.567,15,-139.19,0\C,21,1.40859,20,119.56,15,-5.81082,0\C,23,1.3708,21,112.665,20,-144.061,0\C,24,1.37468,23,104.876,21,4.91674,0\C,23,1.37823,21,119.866,20,6.66922,0\C,24,1.39848,23,119.484,21,138.712,0\C,27,1.39586,24,124.82,23,-130.962,0\C,28,1.36796,27,117.674,24,0.574734,0\C,28,1.38067,27,114.314,24,147.928,0\C,29,1.38748,28,122.233,27,140.425,0\C,31,1.3693,29,120.019,28,0.385464,0\C,32,1.37871,31,120.127,29,-135.978,0\C,33,1.37822,32,120.156,31,-5.79893,0\C,34,1.36322,33,123.423,32,3.22528,0\C,35,1.37542,34,114.908,33,2.25402,0\C,36,1.36147,35,122.609,34,136.012,0\C,35,1.38685,34,108.096,33,140.084,0\C,30,1.39006,28,119.951,27,-140.902,0\C,30,1.3906,28,103.395,27,-1.91619,0\C,37,1.41077,36,120.444,35,-3.2173,0\C,41,1.38798,37,124.473,36,-142.896,0\C,42,1.39686,41,105.881,37,144.016,0\C,43,1.40792,42,114.469,41,-137.978,0\C,44,1.40922,43,121.245,42,138.417,0\C,45,1.38595,44,117.877,43,-1.25918,0\C,46,1.36724,45,120.575,44,-140.41,0\C,47,1.40439,46,108.686,45,143.137,0\C,48,1.34932,47,108.928,46,-1.15767,0\C,49,1.39604,48,122.733,47,-143.027,0\C,50,1.40823,49,120.962,48,4.73422,0\C,49,1.41254,48,108.757,47,6.14701,0\C,52,1.40723,49,117.958,48,-144.32,0\C,53,1.39443,52,122.166,49,1.04857,0\C,18,1.41641,17,109.301,13,-148.751,0\C,6,1.41821,5,106.163,4,146.154,0\C,56,1.37606,6,108.762,5,0.930739,0\C,29,1.43089,28,120.519,27,-2.13159,0\C,26,1.46015,23,121.93,21,-150.161,0\C,40,1.46266,30,112.425,28,10.36,0\C,60,1.48459,40,129.836,30,143.638,0\C,61,1.51913,60,119.581,40,-142.712,0\C,62,1.37095,61,122.68,60,48.4831,0\H,63,1.08621,62,114.587,61,3.79031,0\C,62,1.42638,61,118.723,60,-121.201,0\H,65,1.08669,62,130.585,61,-5.68339,0\C,63,1.44286,62,123.37,61,-166.585,0\H,67,1.08609,63,120.481,62,177.03,0\C,67,1.41901,63,120.792,62,-7.09299,0\H,69,1.08521,67,125.852,63,-178.777,0\C,69,1.428,67,116.247,63,4.373,0\H,71,1.08604,69,117.351,67,-179.226,0\C,61,1.59776,60,117.876,40,-2.54011,0\H,73,1.09648,61,107.7,60,-107.923,0\H,73,1.09695,61,111.631,60,11.7333,0\C,73,1.59453,61,110.502,60,136.478,0\H,76,1.09696,73,102.172,61,79.9606,0\H,76,1.0971,73,111.96,61,-39.3748,0\C,76,1.54128,73,115.681,61,-167.568,0\H,79,1.09662,76,104.29,73,71.9956,0\H,79,1.0968,76,104.226,73,-45.0209,0\C,79,1.55863,76,112.281,73,-170.347,0\O,82,1.24434,79,120.475,76,135.343,0\O,82,1.35993,79,112.432,76,-45.3083,0\C,84,1.45815,82,113.962,79,173.442,0\H,85,1.09614,84,108.092,82,-64.2988,0\H,85,1.09684,84,107.627,82,58.849,0\H,85,1.09721,84,103.874,82,168.012,0\H,83,2.28883,82,128.914,79,21.5346,0\C,89,1.0872,83,144.507,82,-0.572933,0\C,90,1.39067,89,116.855,83,82.0622,0\H,91,1.08549,90,120.03,89,6.85016,0\C,90,1.40935,89,123.634,83,-102.908,0\H,93,1.08588,90,123.157,89,10.5556,0\C,91,1.42723,90,119.654,89,179.649,0\C,95,1.40619,91,123.335,90,-4.94313,0\H,96,1.08602,95,121.447,91,175.069,0\C,96,1.41491,95,115.806,91,8.37077,0\H,98,1.08541,96,120.786,95,178.905,0\C,95,1.51559,91,119.934,90,178.381,0\C,100,1.53207,95,116.067,91,-133.595,0\C,101,1.45669,100,128.511,95,7.12279,0\C,102,1.37505,101,118.951,100,67.876,0\C,103,1.38677,102,121.581,101,146.567,0\C,104,1.37806,103,124.553,102,0.330825,0\C,105,1.38933,104,114.592,103,-7.1209,0\C,106,1.39048,105,106.575,104,-142.454,0\C,107,1.37372,106,110.784,105,5.47891,0\C,108,1.35842,107,122.689,106,139.68,0\C,106,1.40446,105,122.048,104,8.44358,0\C,108,1.40742,107,106.9,106,-8.35992,0\C,103,1.40979,102,124.013,101,3.81318,0\C,112,1.40798,103,109.044,102,147.235,0\C,113,1.40285,112,108.385,103,0.322974,0\C,113,1.40668,112,123.58,103,-142.772,0\C,114,1.4093,113,121.363,112,-146.662,0\C,116,1.39112,114,120.72,113,3.47731,0\C,117,1.36998,116,108.229,114,140.005,0\C,118,1.39137,117,109.202,116,0.856923,0\C,119,1.39424,118,121.477,117,-141.504,0\C,116,1.39777,114,120.834,113,143.601,0\C,117,1.40291,116,118.981,114,-1.82731,0\C,122,1.40248,117,120.77,116,135.595,0\C,120,1.40457,119,121.114,118,1.30986,0\C,124,1.38714,120,106.949,119,145.293,0\C,125,1.35693,124,110.304,120,-3.06558,0\C,118,1.40844,117,120.515,116,-137.426,0\C,127,1.40585,118,119.542,117,-4.16929,0\C,128,1.37664,127,110.362,118,147.006,0\C,126,1.40877,125,119.899,124,-141.875,0\C,130,1.40005,126,116.134,125,136.872,0\C,131,1.39747,130,107.924,126,-139.125,0\C,132,1.38268,131,107.774,130,-0.843952,0\C,133,1.39132,132,109.515,131,1.25615,0\C,132,1.40537,131,126.048,130,144.443,0\C,133,1.41479,132,117.197,131,144.475,0\C,136,1.41031,133,120.007,132,-135.028,0\C,137,1.40218,136,117.405,133,0.0982439,0\C,138,1.37403,137,117.201,136,138.456,0\C,138,1.40137,137,126.28,136,-2.28779,0\C,140,1.38559,138,111.683,137,143.284,0\C,112,1.4152,103,120.562,102,4.58156,0\C,123,1.4166,122,109.534,117,-145.169,0\C,143,1.40849,123,118.6,122,141.461,0\C,144,1.39589,143,121.21,123,5.37998,0\C,145,1.41471,144,109.038,143,-141.256,0\C,146,1.39248,145,107.621,144,-4.67501,0\C,147,1.37997,146,107.723,145,5.65038,0\C,147,1.41203,146,119.356,145,139.141,0\C,149,1.37141,147,124.575,146,-139.517,0\C,150,1.412,149,108.123,147,148.313,0\C,151,1.38229,150,121.019,149,-143.512,0\C,141,1.41841,140,105.214,138,1.55358,0\C,153,1.39364,141,124.461,140,-146.075,0\C,154,1.40231,153,114.076,141,6.6162,0\C,142,1.41931,112,120.03,103,135.67,0\C,156,1.3896,142,106.835,112,-141.044,0\C,156,1.41107,142,118.988,112,4.31442,0\C,157,1.42853,156,109.775,142,-0.0606823,0\C,142,1.47525,112,118.546,103,-9.53659,0\C,100,1.5512,95,113.86,91,73.1854,0\H,161,1.09708,100,110.426,95,-177.843,0\H,161,1.09757,100,109.458,95,-61.5189,0\C,161,1.56905,100,112.073,95,59.0908,0\H,164,1.09714,161,108.886,100,-158.438,0\H,164,1.09726,161,110.7,100,-48.4642,0\C,164,1.55981,161,109.954,100,78.3498,0\H,167,1.09691,164,105.382,161,-72.3427,0\H,167,1.09818,164,113.084,161,54.2527,0\C,167,1.52051,164,122.578,161,173.54,0\O,170,1.24962,167,124.346,164,1.72261,0\O,170,1.33137,167,110.269,164,179.148,0\C,172,1.44867,170,123.541,167,166.676,0\H,173,1.09707,172,114.994,170,151.344,0\H,173,1.09727,172,108.827,170,-92.8083,0\H,173,1.09749,172,121.511,170,24.2314,0\\\@

 Total job time:  864.79s(wall), 8277.29s(cpu) 
 Fri Oct 12 15:48:43 2018

        *************************************************************
        *                                                           *
        *  Thank you very much for using Q-Chem.  Have a nice day.  *
        *                                                           *
        *************************************************************


