
Running Job 1 of 1 ./9/28.qcin
qchem ./9/28.qcin_31968.0 /tmpu/cab_g/afmv_a/scratch_qchem/qchem31968/ 1
/tmpu/appuserlic/qchem4.4/serial-multicore/exe/qcprog.exe_s ./9/28.qcin_31968.0 /tmpu/cab_g/afmv_a/scratch_qchem/qchem31968/
Check license passed

                  Welcome to Q-Chem
     A Quantum Leap Into The Future Of Chemistry


 Q-Chem 4.4, Q-Chem, Inc., Pleasanton, CA (2016)

 Y. Shao,  Z. Gan,  E. Epifanovsky,  A. T. B. Gilbert,  M. Wormit,  
 J. Kussmann,  A. W. Lange,  A. Behn,  J. Deng,  X. Feng,  D. Ghosh,  
 M. Goldey,  P. R. Horn,  L. D. Jacobson,  I. Kaliman,  F. Rob,  
 R. Z. Khaliullin,  T. Kus,  A. Landau,  J. Liu,  E. I. Proynov,  Y. M. Rhee,  
 R. M. Richard,  M. A. Rohrdanz,  R. P. Steele,  E. J. Sundstrom,  
 H. L. Woodcock III,  P. M. Zimmerman,  D. Zuev,  B. Albrecht,  E. Alguire,  
 B. Austin,  S. A. Baeppler,  G. J. O. Beran,  Y. A. Bernard,  E. Berquist,  
 K. Brandhorst,  K. B. Bravaya,  S. T. Brown,  D. Casanova,  C.-M. Chang,  
 Y. Chen,  S. H. Chien,  K. D. Closser,  M. P. Coons,  D. L. Crittenden,  
 S. Dasgupta,  M. Diedenhofen,  R. A. DiStasio Jr.,  H. Do,  A. D. Dutoi,  
 R. G. Edgar,  P.-T. Fang,  S. Fatehi,  Q. Feng,  L. Fusti-Molnar,  
 A. Ghysels,  A. Golubeva-Zadorozhnaya,  J. Gomes,  A. Gunina,  
 M. W. D. Hanson-Heine,  P. H. P. Harbach,  A. W. Hauser,  J. E. Herr,  
 E. G. Hohenstein,  Z. C. Holden,  K. Hui,  T.-C. Jagau,  H. Ji,  B. Kaduk,  
 K. Khistyaev,  Jaehoon Kim,  Jihan Kim,  R. A. King,  P. Klunzinger,  
 K. Koh,  D. Kosenkov,  T. Kowalczyk,  C. M. Krauter,  A. Kunitsa,  
 K. U. Lao,  A. Laurent,  K. V. Lawler,  J. Lee,  D. Lefrancois,  S. Lehtola,  
 S. V. Levchenko,  C. Y. Lin,  Y.-S. Lin,  F. Liu,  E. Livshits,  
 R. C. Lochan,  A. Luenser,  P. Manohar,  S. F. Manzer,  S.-P. Mao,  Y. Mao,  
 N. Mardirossian,  A. V. Marenich,  L. A. Martinez-Martinez,  S. A. Maurer,  
 N. J. Mayhall,  J.-M. Mewes,  A. F. Morrison,  K. Nanda,  T. S. Nguyen-Beck,  
 C. M. Oana,  R. Olivares-Amaya,  D. P. O'Neill,  J. A. Parkhill,  
 T. M. Perrine,  R. Peverati,  P. A. Pieniazek,  F. Plasser,  A. Prociuk,  
 D. R. Rehn,  E. Rosta,  N. J. Russ,  N. Sergueev,  S. M. Sharada,  
 S. Sharma,  D. W. Small,  A. Sodt,  T. Stauch,  T. Stein,  D. Stuck,  
 Y.-C. Su,  A. J. W. Thom,  T. Tsuchimochi,  L. Vogt,  O. Vydrov,  T. Wang,  
 M. A. Watson,  J. Wenzel,  A. White,  C. F. Williams,  V. Vanovschi,  
 K. Yao,  S. Yeganeh,  S. R. Yost,  Z.-Q. You,  I. Y. Zhang,  X. Zhang,  
 Y. Zhao,  B. R. Brooks,  G. K. L. Chan,  D. M. Chipman,  C. J. Cramer,  
 W. A. Goddard III,  M. S. Gordon,  W. J. Hehre,  A. Klamt,  
 H. F. Schaefer III,  M. W. Schmidt,  C. D. Sherrill,  D. G. Truhlar,  
 A. Warshel,  X. Xu,  A. Aspuru-Guzik,  R. Baer,  A. T. Bell,  N. A. Besley,  
 J.-D. Chai,  A. Dreuw,  B. D. Dunietz,  T. R. Furlani,  S. R. Gwaltney,  
 C.-P. Hsu,  Y. Jung,  J. Kong,  D. S. Lambrecht,  W. Liang,  C. Ochsenfeld,  
 V. A. Rassolov,  L. V. Slipchenko,  J. E. Subotnik,  T. Van Voorhis,  
 J. M. Herbert,  A. I. Krylov,  P. M. W. Gill,  M. Head-Gordon

 Contributors to earlier versions of Q-Chem not listed above: 
 R. D. Adamson,  J. Baker,  E. F. C. Byrd,  A. K. Chakraborty,  C.-L. Cheng,  
 H. Dachsel,  R. J. Doerksen,  G. Hawkins,  A. Heyden,  S. Hirata,  
 G. Kedziora,  F. J. Keil,  C. Kelley,  P. P. Korambath,  W. Kurlancheek,  
 A. M. Lee,  M. S. Lee,  D. Liotard,  I. Lotan,  P. E. Maslen,  N. Nair,  
 D. Neuhauser,  R. Olson,  B. Peters,  J. Ritchie,  N. E. Schultz,  
 N. Shenvi,  A. C. Simmonett,  K. S. Thanthiriwatte,  Q. Wu,  W. Zhang

 Please cite Q-Chem as follows:
 Y. Shao et al., Mol. Phys. 113, 184-215 (2015)
 DOI: 10.1080/00268976.2014.952696

 Q-Chem 4.4.2 for Intel X86 Linux

 Parts of Q-Chem use Armadillo 5.200.1 (Boston Tea Smuggler).
 http://arma.sourceforge.net/

 Q-Chem begins on Fri Oct 12 15:48:44 2018  

Host: 
0

     Scratch files written to /tmpu/cab_g/afmv_a/scratch_qchem/qchem31968//
 Dec716 11556_ 22328  22283 4050   
Processing $rem in /tmpu/appuserlic/qchem4.4/serial-multicore/config/preferences.
 MEM_TOTAL  2000 
FILE_GEOM_ORG=        593

Checking the input file for inconsistencies... 	...done.

--------------------------------------------------------------
User input:
--------------------------------------------------------------
$comment
SP
$end

$rem
MEM_STATIC 5000
MEM_TOTAL 20000
JOBTYPE SP
EXCHANGE B3LYP
BASIS 6-31g(d,p)
$end

$molecule
0 1
O         -21.884000     -8.487000    -13.806000
C         -21.802000     -7.886000    -15.132000
H         -20.757000     -7.600000    -15.303000
H         -22.313000     -6.922000    -15.016000
H         -22.184000     -8.612000    -15.859000
O         -20.244000    -10.017000    -14.445000
C         -21.091000     -9.580000    -13.645000
C         -21.326000    -10.289000    -12.277000
H         -20.944000     -9.646000    -11.475000
H         -20.922000    -11.306000    -12.203000
C         -22.824000    -10.452000    -11.953000
H         -23.317000     -9.474000    -11.889000
H         -23.217000    -11.045000    -12.788000
C         -23.163000    -11.374000    -10.697000
H         -23.021000    -12.409000    -11.030000
H         -22.488000    -11.173000     -9.856000
C         -24.695000    -11.205000    -10.276000
C         -25.602000    -12.031000    -11.172000
C         -26.226000    -11.397000    -12.287000
H         -26.109000    -10.393000    -12.686000
C         -27.225000    -12.135000    -13.073000
H         -27.660000    -11.700000    -13.968000
C         -27.675000    -13.435000    -12.690000
H         -28.467000    -13.890000    -13.276000
C         -27.079000    -13.988000    -11.527000
H         -27.397000    -14.973000    -11.198000
C         -26.011000    -13.298000    -10.845000
H         -25.583000    -13.688000     -9.926000
C         -28.569000     -7.685000     -8.877000
C         -29.252000     -9.777000     -7.799000
C         -28.248000     -8.442000     -3.481000
C         -23.848000     -6.455000     -7.692000
C         -25.184000    -10.028000     -3.527000
C         -28.705000     -9.078000     -8.892000
C         -23.398000     -7.361000     -5.106000
C         -29.357000     -7.206000     -5.286000
C         -25.944000    -11.941000     -6.935000
C         -23.144000     -7.727000     -7.474000
C         -25.008000    -11.082000     -8.830000
C         -24.635000    -11.697000     -6.570000
C         -22.985000     -9.500000     -6.157000
C         -23.894000     -7.992000     -3.988000
C         -27.529000    -11.051000     -8.617000
C         -26.103000     -7.880000     -3.036000
C         -25.176000     -9.888000     -9.715000
C         -24.283000     -8.694000     -9.368000
C         -26.255000     -9.322000     -3.023000
C         -26.645000     -5.112000     -5.954000
C         -27.461000     -6.202000     -4.174000
C         -28.504000     -6.099000     -5.121000
C         -29.678000     -7.626000     -6.627000
C         -25.069000     -7.533000     -9.503000
C         -26.270000    -11.516000     -8.224000
C         -29.725000     -9.020000     -6.703000
C         -22.937000     -8.098000     -6.152000
C         -28.496000    -10.962000     -7.644000
C         -24.341000    -11.283000     -5.276000
C         -25.919000     -5.685000     -8.182000
C         -29.187000     -8.388000     -4.566000
C         -24.109000    -11.040000     -7.677000
C         -28.201000     -5.914000     -7.583000
C         -23.510000    -10.158000     -5.062000
C         -26.924000    -11.889000     -5.982000
C         -25.039000     -6.056000     -4.306000
C         -24.002000     -6.124000     -5.294000
C         -26.667000    -11.494000     -4.677000
C         -24.846000     -6.425000     -8.670000
C         -23.418000     -8.800000     -8.273000
C         -25.585000     -5.159000     -6.910000
C         -26.499000     -9.284000     -9.845000
C         -28.628000    -10.646000     -5.191000
C         -23.259000     -9.902000     -7.484000
C         -25.396000    -11.147000     -4.304000
C         -27.229000     -5.963000     -8.622000
C         -27.554000     -9.629000     -3.300000
C         -29.084000     -7.001000     -7.740000
C         -27.358000     -7.322000     -3.347000
C         -28.245000    -11.456000     -6.321000
C         -27.728000    -10.680000     -4.170000
C         -27.626000     -9.877000     -9.318000
C         -26.363000     -7.848000     -9.794000
C         -26.383000     -5.539000     -4.642000
C         -29.384000     -9.481000     -5.439000
C         -23.988000     -9.406000     -3.997000
C         -24.279000     -5.657000     -6.584000
C         -24.938000     -7.166000     -3.499000
C         -27.425000     -7.044000     -9.389000
C         -27.913000     -5.494000     -6.294000
O         -35.269000    -21.526000     -6.132000
C         -36.520000    -21.878000     -5.514000
H         -36.343000    -22.339000     -4.534000
H         -37.115000    -22.466000     -6.223000
H         -37.070000    -20.932000     -5.446000
O         -34.330000    -23.568000     -5.784000
C         -34.246000    -22.443000     -6.234000
C         -32.986000    -21.967000     -6.998000
H         -32.263000    -22.784000     -7.120000
H         -32.645000    -21.251000     -6.240000
C         -33.164000    -21.178000     -8.259000
H         -33.514000    -21.764000     -9.118000
H         -33.970000    -20.448000     -8.114000
C         -31.831000    -20.478000     -8.550000
H         -31.055000    -21.232000     -8.727000
H         -32.007000    -20.027000     -9.534000
C         -31.233000    -19.430000     -7.596000
C         -32.207000    -18.554000     -6.975000
C         -32.465000    -18.638000     -5.569000
H         -32.178000    -19.465000     -4.926000
C         -33.258000    -17.650000     -4.963000
H         -33.303000    -17.725000     -3.880000
C         -33.622000    -16.502000     -5.702000
H         -34.161000    -15.664000     -5.270000
C         -33.388000    -16.416000     -7.075000
H         -33.732000    -15.529000     -7.599000
C         -32.694000    -17.436000     -7.740000
H         -32.598000    -17.375000     -8.820000
C         -27.548000    -15.459000     -7.124000
C         -27.717000    -16.355000     -4.876000
C         -23.656000    -18.451000     -4.718000
C         -26.466000    -19.242000    -10.324000
C         -24.963000    -21.604000     -5.421000
C         -28.325000    -16.004000     -6.100000
C         -24.935000    -21.187000     -9.020000
C         -24.390000    -16.263000     -5.668000
C         -28.756000    -20.249000     -4.868000
C         -27.069000    -20.444000     -9.833000
C         -30.013000    -19.824000     -6.891000
C         -28.483000    -21.282000     -5.720000
C         -27.094000    -21.918000     -8.170000
C         -24.378000    -21.500000     -7.795000
C         -29.350000    -17.921000     -5.287000
C         -23.142000    -20.107000     -6.190000
C         -29.921000    -18.790000     -8.021000
C         -29.060000    -19.171000     -9.159000
C         -24.005000    -20.610000     -5.138000
C         -23.950000    -17.240000     -8.958000
C         -22.997000    -17.813000     -6.937000
C         -23.703000    -16.678000     -6.825000
C         -25.595000    -15.602000     -5.638000
C         -28.334000    -17.994000     -9.550000
C         -29.566000    -19.324000     -5.503000
C         -26.364000    -16.142000     -4.606000
C         -26.321000    -21.437000     -9.215000
C         -28.351000    -17.531000     -4.405000
C         -27.188000    -21.916000     -5.724000
C         -26.109000    -17.026000     -9.916000
C         -24.337000    -17.137000     -4.573000
C         -29.146000    -21.076000     -6.941000
C         -25.504000    -15.599000     -8.084000
C         -26.501000    -22.249000     -6.947000
C         -27.768000    -19.839000     -3.949000
C         -23.375000    -19.611000     -8.594000
C         -24.314000    -20.059000     -9.548000
C         -26.515000    -20.468000     -3.848000
C         -27.114000    -18.025000    -10.147000
C         -28.369000    -20.408000     -9.220000
C         -24.844000    -17.627000     -9.912000
C         -29.527000    -17.409000     -7.685000
C         -26.208000    -18.287000     -3.532000
C         -28.394000    -21.298000     -8.150000
C         -26.220000    -21.530000     -4.760000
C         -26.452000    -15.998000     -9.035000
C         -24.253000    -19.628000     -4.218000
C         -26.162000    -15.275000     -6.891000
C         -22.993000    -18.731000     -5.887000
C         -27.574000    -18.455000     -3.679000
C         -25.545000    -19.546000     -3.648000
C         -29.257000    -16.992000     -6.349000
C         -28.651000    -16.902000     -8.705000
C         -23.218000    -18.237000     -8.306000
C         -25.584000    -17.096000     -4.016000
C         -25.162000    -21.998000     -6.755000
C         -25.082000    -19.013000    -10.171000
C         -23.383000    -20.514000     -7.549000
C         -27.687000    -15.937000     -8.425000
C         -24.264000    -16.276000     -8.027000
$end

--------------------------------------------------------------
 ----------------------------------------------------------------
             Standard Nuclear Orientation (Angstroms)
    I     Atom           X                Y                Z
 ----------------------------------------------------------------
    1      O      -7.2197744309     5.9351686933    -3.2425563614
    2      C      -7.9148566146     6.5620696655    -4.3606158092
    3      H      -8.4971985452     7.4013476562    -3.9611757884
    4      H      -8.6831587453     5.8291543562    -4.6370574580
    5      H      -7.1656515413     6.8603633895    -5.1030722809
    6      O      -6.2688037601     8.0021175779    -2.7305035399
    7      C      -6.3878005190     6.7740419035    -2.5691098921
    8      C      -5.5429874298     6.0332008879    -1.4889360941
    9      H      -6.2073358357     5.7166364642    -0.6759138549
   10      H      -4.6797398276     6.5920098509    -1.1074690311
   11      C      -4.9385700912     4.7186102190    -2.0200481858
   12      H      -5.7291740953     4.0245831719    -2.3313370655
   13      H      -4.3213278885     5.0308152603    -2.8714370955
   14      C      -3.8688145575     4.0160325468    -1.0689705272
   15      H      -2.9438861193     4.5966265456    -1.1674387585
   16      H      -4.1907826828     4.0312002721    -0.0204413353
   17      C      -3.5650842001     2.5297047806    -1.5703722039
   18      C      -2.5837664585     2.5342671015    -2.7299995903
   19      C      -3.0947210540     2.4792768831    -4.0605853550
   20      H      -4.1171101944     2.5135027810    -4.4272664611
   21      C      -2.1633909764     2.3265701123    -5.1874153905
   22      H      -2.5215477502     2.3548001153    -6.2123065029
   23      C      -0.7647212169     2.1201622027    -4.9866476670
   24      H      -0.1480234301     1.9427954854    -5.8618104446
   25      C      -0.3197553366     2.1043464562    -3.6392987042
   26      H       0.7363383725     1.9447577766    -3.4423532014
   27      C      -1.2323810050     2.3818419614    -2.5567283213
   28      H      -0.9135063569     2.3224885446    -1.5200793302
   29      C      -5.7295284645    -2.2661922940    -2.8626683299
   30      C      -3.4565798095    -2.8193946205    -2.1327994390
   31      C      -4.7012702634    -4.7670340377     1.8787852073
   32      C      -8.1575610771     0.4676381326     0.5776506715
   33      C      -4.0571261698    -1.8869512735     3.6664679693
   34      C      -4.3601561248    -1.9806837151    -2.8129265298
   35      C      -7.2293764831    -0.3472915830     3.0646357776
   36      C      -5.7008522981    -4.9919072493    -0.3496379560
   37      C      -2.2622855994    -0.0869693214     0.6021172552
   38      C      -7.1250207209     1.2544203279     1.2675479029
   39      C      -3.4879427932     1.4548205147    -0.5492517319
   40      C      -2.8400522472     0.6778288679     1.5958533521
   41      C      -5.3783472388     1.1461144503     2.6242721136
   42      C      -6.4034485038    -1.1782720039     3.7867268474
   43      C      -2.7870386664    -0.6593521571    -1.7495759876
   44      C      -5.8143080943    -3.4744867207     3.3638314086
   45      C      -4.6467958779     1.4786477531    -1.4945436396
   46      C      -6.0162411925     1.6629165061    -0.8356365469
   47      C      -4.3914952031    -3.2034477777     3.4329571474
   48      C      -8.5210689666    -3.0638490359     0.3679785631
   49      C      -7.1170030696    -4.3840600532     1.5116558893
   50      C      -6.9891092222    -4.7152352397     0.1444568695
   51      C      -5.3065275174    -4.3928114183    -1.5999635746
   52      C      -6.9133121426     0.7965159269    -1.4902782406
   53      C      -2.6706701033     0.2463564574    -0.6903756934
   54      C      -3.9659095517    -4.0033243246    -1.5523791866
   55      C      -6.7321017694     0.7941950189     2.5173404307
   56      C      -2.5265878896    -1.9810159610    -1.4755154425
   57      C      -3.2244280327     0.0848993681     2.7929155325
   58      C      -8.3423860097    -1.1095387606    -1.0349229833
   59      C      -4.5661335371    -4.9268652234     0.4582029121
   60      C      -3.6985413726     1.5192564542     0.8967324479
   61      C      -7.4323723038    -3.1753631739    -1.7581176655
   62      C      -4.5200650885     0.3123411660     3.3140458887
   63      C      -1.9642368241    -1.3976913686     0.8560614272
   64      C      -7.9531317227    -2.4413233746     2.7081035785
   65      C      -8.2546122202    -1.0620016564     2.4576677436
   66      C      -2.3191468472    -2.0206028846     2.0439667764
   67      C      -7.9749026909     0.2091356227    -0.7836723491
   68      C      -6.0799399547     1.7732379234     0.5580124952
   69      C      -8.8468056045    -1.6897531505     0.1546685996
   70      C      -4.8586418714     0.3396633749    -2.3832960581
   71      C      -2.6115047781    -3.5193619058     0.4637550069
   72      C      -5.0135356481     1.7696287790     1.4094670324
   73      C      -2.9840331331    -1.3186076715     3.0135584160
   74      C      -7.7373240290    -1.8245559149    -2.0883148707
   75      C      -3.7498777849    -3.9912880662     2.5241041513
   76      C      -6.1541441051    -3.4856143938    -2.2638684467
   77      C      -6.0147219822    -4.4477413013     2.3659738061
   78      C      -2.0284683977    -2.3731261128    -0.1888559690
   79      C      -2.7593950564    -3.3606730099     1.8078321252
   80      C      -3.9334178685    -0.6750339698    -2.5010111515
   81      C      -6.2664896690     0.0225159434    -2.4072769937
   82      C      -8.0909366032    -3.4597378211     1.6449183501
   83      C      -3.5291902061    -4.3011514447    -0.2689956821
   84      C      -5.0254682789    -0.8571297745     3.8664210641
   85      C      -8.7171238675    -0.7010684236     1.1869481925
   86      C      -6.8613107295    -2.4983605623     3.5437013753
   87      C      -6.7043688410    -1.2595724546    -2.7278954124
   88      C      -7.8211498532    -3.7719364652    -0.5690771594
   89      O       9.6056596355    -5.2377485526    -2.8755268054
   90      C      10.3422888481    -6.4667618571    -3.0086909922
   91      H      10.8047017107    -6.7380086324    -2.0511683912
   92      H      11.0212707369    -6.3844705358    -3.8658150982
   93      H       9.5987391939    -7.1991150018    -3.3445969065
   94      O      11.3173122782    -4.1244081926    -1.8738744338
   95      C      10.1848506925    -4.1216122877    -2.3128550028
   96      C       9.3164068914    -2.8395599643    -2.3084727119
   97      H       9.8835953505    -1.9766979591    -1.9358221896
   98      H       8.5906625561    -3.1844579387    -1.5615848039
   99      C       8.5200680912    -2.5053482062    -3.5325940360
  100      H       9.1166638504    -2.1479768809    -4.3812024474
  101      H       8.0612876419    -3.4222958719    -3.9228355991
  102      C       7.4514146454    -1.4872810741    -3.1165542211
  103      H       7.9393047928    -0.5698012361    -2.7669616712
  104      H       6.9979864195    -1.2102883825    -4.0758825762
  105      C       6.3497144222    -1.8287277835    -2.0988633237
  106      C       5.8338685806    -3.1798844261    -2.1987221989
  107      C       6.0904017666    -4.1322733996    -1.1606461094
  108      H       6.8468669775    -4.0306574243    -0.3878708650
  109      C       5.4150388402    -5.3633330294    -1.1852653200
  110      H       5.5788880188    -5.9728198781    -0.3008343008
  111      C       4.3664529222    -5.5615897191    -2.1113770074
  112      H       3.7497258166    -6.4553297037    -2.1276717063
  113      C       4.1172323315    -4.6468057721    -3.1352619753
  114      H       3.3282853417    -4.8752939555    -3.8459213856
  115      C       4.8469429276    -3.4526089259    -3.2106100893
  116      H       4.6822364524    -2.8006739900    -4.0633642252
  117      C       1.5424432629    -0.2772937820    -0.0853970241
  118      C       2.6118360186    -1.3976713255     1.7816954466
  119      C       3.4758233221     2.2976512050     4.3327772437
  120      C       4.6181365607     3.3777403178    -1.7891133935
  121      C       6.8096615092     2.5230945603     3.3435526807
  122      C       2.3589426458    -1.3020610722     0.3967966700
  123      C       6.1392264915     4.4063370066     0.3217338947
  124      C       1.5223152467     1.6362855793     2.9274297036
  125      C       6.6302835548    -1.1466810950     1.6030776910
  126      C       5.9744097175     2.9642820081    -1.5914537104
  127      C       6.4321247074    -1.1447086329    -0.8081320014
  128      C       7.4781098668    -0.1783100438     1.1437629275
  129      C       7.5127376255     2.4382936480    -0.0762793005
  130      C       6.3703229696     4.2594567267     1.6759360957
  131      C       4.5421320526    -2.0278396194     0.7024312795
  132      C       4.8055374913     3.9685702843     3.5497027526
  133      C       5.3345634482    -0.7370808094    -1.7999580143
  134      C       5.3712728123     0.6721807186    -2.2405943363
  135      C       5.6083200333     2.8489933373     4.0042020926
  136      C       2.0905479944     4.0596802421     0.5239949004
  137      C       2.5162806764     3.8598572706     2.7822689014
  138      C       1.6394856337     2.9281091418     2.3794278935
  139      C       1.2342325108     0.4867894838     2.2306420290
  140      C       4.0113508372     1.1346555398    -2.2854860000
  141      C       5.9290210436    -1.6923046736     0.5421932483
  142      C       2.0442688140    -0.5374403707     2.7233685177
  143      C       6.7570264152     3.4891049810    -0.5718709763
  144      C       3.9505749762    -1.8317787679     1.9432557505
  145      C       7.7167592616     1.0204504935     1.9086267328
  146      C       2.4279916029     2.8235627773    -1.4717471732
  147      C       2.4232080913     1.3180881131     3.9535156917
  148      C       7.3796742166    -0.0877041759    -0.2544312648
  149      C       1.0262809464     1.9008858272     0.2436106557
  150      C       7.7506887647     2.3258787625     1.2976497911
  151      C       6.0254350409    -0.9851359878     2.8667495050
  152      C       4.2211706036     4.9679229817     1.3727024020
  153      C       4.8458912087     4.8747402144     0.1103307699
  154      C       6.2789103940     0.1214558759     3.6956377320
  155      C       3.6512538290     2.4334149739    -2.1142432570
  156      C       6.3535860037     1.5922496000    -1.7934869136
  157      C       2.6441824491     3.9851553076    -0.7198121283
  158      C       3.9270255868    -0.9920238503    -1.4406055210
  159      C       4.1296668758    -0.4119824875     3.9125750780
  160      C       7.2900648482     1.2306679198    -0.8291783208
  161      C       7.1438281498     1.1481341014     3.2012066480
  162      C       1.6069228794     1.7854291912    -1.0259682946
  163      C       4.8071510699     1.8770823183     4.5387535523
  164      C       0.9905337559     0.6372918367     0.8463057408
  165      C       3.4698414352     3.5398638618     3.7484811440
  166      C       4.6669095759    -1.3624324634     3.0618082919
  167      C       5.1369245479     0.5222738079     4.3007801225
  168      C       3.5496658995    -1.6277764923    -0.2219573992
  169      C       3.1190771988     0.1191319566    -1.8617672180
  170      C       2.8840186945     4.5543161184     1.5635508623
  171      C       2.7784689065     0.0172342095     3.7332706586
  172      C       7.1450415969     3.2074068373     2.1630316499
  173      C       4.0179044294     4.3222548809    -0.9295090492
  174      C       5.1634258821     4.6370682204     2.3267401984
  175      C       1.9435423631     0.4594168719    -1.1975044489
  176      C       1.3261127922     3.0346349332     1.0334788908
 ----------------------------------------------------------------
 Molecular Point Group                 C1    NOp =  1
 Largest Abelian Subgroup              C1    NOp =  1
 Nuclear Repulsion Energy = 34515.6849195484 hartrees
 There are      462 alpha and      462 beta electrons
 Requested basis set is 6-31G(d,p)
 There are 676 shells and 2360 basis functions

 Total QAlloc Memory Limit  20000 MB
 Mega-Array Size      4888 MB
 MEM_STATIC part      5000 MB
 A cutoff of  1.0D-08 yielded  37604 shell pairs
 There are    527661 function pairs
 
 -------------------------------------------------------
 OpenMP Integral Computing Module                       
 Release: version 1.0, May 2013, Q-Chem Inc. Pittsburgh 
 -------------------------------------------------------
 Integral Job Info:
 Integral job number is                      11
 Integral operator is                         1
 short-range coefficients                     0
 long-range coefficients              100000000
 Omega coefficients                           0
 if combine SR and LR in K                    0
 Integral screening is                        0
 Integral computing path is                   2
 max size of driver memory is            800000
 size of driver memory is                593474
 size of scratch memory is              2260544
 max col of scratch BK array               1296
 max len of scratch array in speh3          155
 max len of scratch index in speh4           18
 max int batch size is                      520
 min int batch size is                       52
 fixed nKL is                                52
 max L of basis functions is                  2
 order of int derivative is                   0
 number of shells is                        676
 number of basis is                        2360
 number of cartesian basis is              2360
 number of contracted shell pairs         37604
 number of primitive shell pairs         113932
 maxK2 (contraction) of shell pair           36
 max number of K2 of shell pair               1
 max number of CS2 of shell pair           7168
 max number of PS2 of shell pair          34434
 mem total for path MDJ                 1497176
 -------------------------------------------------------
 Smallest overlap matrix eigenvalue = 2.46E-04

 Scale SEOQF with 1.000000e-02/1.000000e-02/1.000000e-02

 Standard Electronic Orientation quadrupole field applied
 Nucleus-field energy     =     0.0000001101 hartrees
 Guess from superposition of atomic densities
 Warning:  Energy on first SCF cycle will be non-variational
 A restricted hybrid HF-DFT SCF calculation will be
 performed using Pulay DIIS extrapolation
 Exchange:     0.2000 Hartree-Fock + 0.0800 Slater + 0.7200 B88
 Correlation:  0.1900 VWN1RPA + 0.8100 LYP
 Using SG-1 standard quadrature grid
 SCF converges when DIIS error is below 1.0E-05
 using 16 threads for integral computing 
 -------------------------------------------------------
 OpenMP BLAS3 based DFT computing Module                
 Release: version 1.0, May 2013, Q-Chem Inc. Pittsburgh 
 -------------------------------------------------------
 ---------------------------------------
  Cycle       Energy         DIIS Error
 ---------------------------------------
    1   -5858.6571085694      1.83E-02
    2   -5803.0790363629      1.29E-03
    3   -5802.3113432193      1.79E-03
    4   -5803.9487022261      6.35E-04
    5   -5804.1590271653      3.00E-04
    6   -5804.2159530553      1.36E-04
    7   -5804.2286036014      4.66E-05
    8   -5804.2295937018      2.88E-05
    9   -5804.2302022903      9.10E-06 Convergence criterion met
 ---------------------------------------
 SCF time:  CPU 8242.08 s  wall 848.60 s
 SCF   energy in the final basis set = -5804.2302022903
 Total energy in the final basis set = -5804.2302022903
 
 --------------------------------------------------------------
 
                    Orbital Energies (a.u.)
 --------------------------------------------------------------
 
 Alpha MOs
 -- Occupied --
-19.202 -19.188 -19.136 -19.131 -10.322 -10.316 -10.250 -10.247
-10.247 -10.242 -10.240 -10.238 -10.236 -10.235 -10.235 -10.232
-10.231 -10.229 -10.228 -10.227 -10.226 -10.226 -10.226 -10.224
-10.223 -10.223 -10.223 -10.223 -10.222 -10.222 -10.222 -10.221
-10.221 -10.221 -10.221 -10.220 -10.220 -10.220 -10.220 -10.220
-10.220 -10.220 -10.219 -10.219 -10.219 -10.218 -10.218 -10.218
-10.218 -10.218 -10.218 -10.218 -10.218 -10.218 -10.218 -10.217
-10.217 -10.217 -10.217 -10.217 -10.217 -10.217 -10.216 -10.216
-10.216 -10.216 -10.216 -10.216 -10.215 -10.215 -10.215 -10.215
-10.215 -10.215 -10.215 -10.215 -10.215 -10.215 -10.215 -10.215
-10.214 -10.214 -10.214 -10.214 -10.214 -10.214 -10.214 -10.214
-10.214 -10.214 -10.214 -10.214 -10.213 -10.213 -10.213 -10.213
-10.213 -10.213 -10.212 -10.212 -10.212 -10.212 -10.212 -10.212
-10.212 -10.212 -10.211 -10.211 -10.211 -10.211 -10.211 -10.211
-10.211 -10.211 -10.211 -10.211 -10.211 -10.210 -10.210 -10.210
-10.210 -10.210 -10.209 -10.209 -10.209 -10.209 -10.208 -10.208
-10.208 -10.208 -10.208 -10.208 -10.207 -10.206 -10.206 -10.206
-10.204 -10.204 -10.204 -10.204 -10.203 -10.203 -10.203 -10.202
-10.202 -10.199 -10.199 -10.195  -1.094  -1.087  -1.006  -1.002
 -0.987  -0.987  -0.969  -0.968  -0.967  -0.965  -0.965  -0.963
 -0.940  -0.937  -0.933  -0.930  -0.927  -0.927  -0.927  -0.926
 -0.924  -0.919  -0.904  -0.901  -0.893  -0.890  -0.890  -0.886
 -0.881  -0.878  -0.855  -0.846  -0.844  -0.842  -0.840  -0.838
 -0.837  -0.837  -0.829  -0.821  -0.815  -0.802  -0.801  -0.800
 -0.800  -0.797  -0.795  -0.794  -0.794  -0.791  -0.788  -0.784
 -0.774  -0.772  -0.770  -0.770  -0.768  -0.765  -0.765  -0.763
 -0.758  -0.744  -0.741  -0.737  -0.735  -0.734  -0.721  -0.721
 -0.718  -0.717  -0.716  -0.715  -0.714  -0.711  -0.711  -0.710
 -0.709  -0.706  -0.705  -0.705  -0.703  -0.701  -0.678  -0.677
 -0.661  -0.660  -0.659  -0.657  -0.654  -0.648  -0.635  -0.633
 -0.633  -0.631  -0.628  -0.627  -0.622  -0.621  -0.619  -0.617
 -0.617  -0.617  -0.615  -0.614  -0.613  -0.612  -0.609  -0.608
 -0.607  -0.605  -0.604  -0.602  -0.567  -0.566  -0.566  -0.565
 -0.564  -0.563  -0.561  -0.560  -0.560  -0.557  -0.555  -0.553
 -0.543  -0.540  -0.538  -0.532  -0.530  -0.529  -0.528  -0.526
 -0.525  -0.524  -0.523  -0.519  -0.518  -0.517  -0.514  -0.513
 -0.507  -0.506  -0.502  -0.498  -0.496  -0.496  -0.490  -0.489
 -0.488  -0.486  -0.485  -0.484  -0.481  -0.480  -0.479  -0.478
 -0.476  -0.475  -0.473  -0.472  -0.471  -0.469  -0.469  -0.468
 -0.467  -0.466  -0.465  -0.464  -0.464  -0.463  -0.462  -0.459
 -0.459  -0.456  -0.455  -0.453  -0.451  -0.450  -0.448  -0.446
 -0.446  -0.443  -0.442  -0.441  -0.441  -0.438  -0.436  -0.436
 -0.433  -0.432  -0.432  -0.431  -0.428  -0.427  -0.426  -0.424
 -0.424  -0.423  -0.423  -0.422  -0.422  -0.421  -0.420  -0.419
 -0.418  -0.417  -0.416  -0.416  -0.415  -0.414  -0.414  -0.413
 -0.412  -0.410  -0.408  -0.407  -0.405  -0.404  -0.399  -0.399
 -0.398  -0.395  -0.394  -0.391  -0.389  -0.388  -0.388  -0.386
 -0.384  -0.380  -0.377  -0.373  -0.369  -0.369  -0.367  -0.367
 -0.366  -0.365  -0.364  -0.363  -0.361  -0.361  -0.360  -0.360
 -0.359  -0.358  -0.357  -0.355  -0.355  -0.355  -0.353  -0.352
 -0.351  -0.350  -0.350  -0.349  -0.347  -0.346  -0.346  -0.345
 -0.344  -0.344  -0.341  -0.339  -0.339  -0.338  -0.336  -0.336
 -0.335  -0.333  -0.332  -0.329  -0.328  -0.327  -0.326  -0.324
 -0.315  -0.315  -0.304  -0.297  -0.291  -0.288  -0.275  -0.275
 -0.272  -0.270  -0.269  -0.267  -0.266  -0.266  -0.265  -0.264
 -0.263  -0.261  -0.260  -0.260  -0.258  -0.257  -0.255  -0.252
 -0.250  -0.249  -0.245  -0.243  -0.224  -0.222  -0.215  -0.211
 -0.210  -0.209  -0.207  -0.204  -0.204  -0.200
 -- Virtual --
 -0.126  -0.124  -0.122  -0.119  -0.114  -0.107  -0.080  -0.080
 -0.076  -0.072  -0.064  -0.061  -0.058  -0.051  -0.026  -0.025
 -0.024  -0.021  -0.020  -0.020  -0.019  -0.017  -0.015  -0.014
 -0.013  -0.012  -0.011  -0.009  -0.008  -0.007   0.002   0.002
  0.008   0.014   0.034   0.037   0.039   0.041   0.043   0.044
  0.050   0.050   0.053   0.056   0.058   0.062   0.064   0.066
  0.069   0.072   0.076   0.078   0.079   0.083   0.090   0.091
  0.092   0.096   0.098   0.100   0.100   0.101   0.102   0.103
  0.108   0.108   0.110   0.112   0.112   0.116   0.118   0.121
  0.122   0.123   0.125   0.128   0.130   0.131   0.135   0.138
  0.141   0.142   0.143   0.143   0.145   0.148   0.150   0.151
  0.156   0.156   0.158   0.159   0.162   0.165   0.167   0.167
  0.168   0.170   0.170   0.171   0.175   0.178   0.178   0.180
  0.181   0.182   0.184   0.186   0.187   0.188   0.191   0.191
  0.194   0.195   0.196   0.198   0.200   0.201   0.204   0.206
  0.207   0.209   0.210   0.211   0.214   0.214   0.216   0.217
  0.220   0.221   0.221   0.222   0.225   0.226   0.227   0.227
  0.229   0.229   0.231   0.233   0.234   0.236   0.236   0.238
  0.242   0.242   0.244   0.246   0.248   0.249   0.251   0.255
  0.260   0.261   0.265   0.268   0.269   0.273   0.275   0.276
  0.282   0.284   0.284   0.286   0.288   0.293   0.300   0.301
  0.304   0.306   0.308   0.309   0.312   0.314   0.315   0.319
  0.321   0.323   0.323   0.326   0.326   0.327   0.329   0.330
  0.333   0.339   0.340   0.343   0.343   0.345   0.347   0.348
  0.352   0.354   0.358   0.369   0.371   0.378   0.386   0.390
  0.394   0.395   0.401   0.404   0.404   0.406   0.407   0.410
  0.412   0.412   0.413   0.415   0.418   0.420   0.421   0.422
  0.424   0.428   0.432   0.435   0.438   0.440   0.442   0.443
  0.444   0.450   0.453   0.455   0.460   0.461   0.462   0.463
  0.466   0.468   0.469   0.472   0.474   0.474   0.475   0.477
  0.477   0.480   0.480   0.482   0.484   0.485   0.485   0.486
  0.488   0.489   0.490   0.491   0.492   0.492   0.494   0.495
  0.495   0.496   0.497   0.498   0.501   0.502   0.503   0.504
  0.505   0.506   0.508   0.509   0.510   0.510   0.511   0.511
  0.511   0.513   0.513   0.515   0.516   0.516   0.517   0.518
  0.520   0.520   0.522   0.522   0.524   0.525   0.526   0.527
  0.528   0.528   0.529   0.530   0.530   0.531   0.531   0.532
  0.532   0.533   0.534   0.535   0.536   0.537   0.537   0.538
  0.538   0.539   0.540   0.542   0.542   0.543   0.544   0.545
  0.545   0.545   0.546   0.547   0.547   0.549   0.550   0.550
  0.551   0.551   0.552   0.552   0.553   0.554   0.555   0.555
  0.556   0.557   0.558   0.559   0.560   0.560   0.561   0.562
  0.563   0.564   0.565   0.565   0.566   0.567   0.569   0.569
  0.570   0.571   0.572   0.572   0.573   0.575   0.575   0.576
  0.578   0.578   0.580   0.580   0.581   0.582   0.583   0.584
  0.584   0.586   0.587   0.587   0.588   0.589   0.590   0.591
  0.591   0.592   0.593   0.593   0.594   0.595   0.596   0.597
  0.598   0.600   0.600   0.601   0.603   0.604   0.605   0.606
  0.607   0.607   0.610   0.611   0.613   0.613   0.615   0.616
  0.616   0.617   0.618   0.621   0.621   0.623   0.624   0.624
  0.625   0.627   0.628   0.630   0.631   0.631   0.632   0.632
  0.633   0.634   0.635   0.636   0.638   0.638   0.639   0.640
  0.642   0.642   0.643   0.645   0.646   0.647   0.648   0.648
  0.650   0.650   0.653   0.653   0.653   0.654   0.655   0.657
  0.657   0.659   0.660   0.661   0.661   0.661   0.663   0.664
  0.664   0.665   0.665   0.666   0.668   0.669   0.670   0.670
  0.671   0.671   0.672   0.673   0.674   0.675   0.676   0.676
  0.679   0.680   0.682   0.683   0.684   0.685   0.686   0.687
  0.688   0.689   0.690   0.691   0.692   0.694   0.696   0.697
  0.698   0.699   0.700   0.701   0.702   0.704   0.705   0.706
  0.708   0.709   0.710   0.711   0.713   0.713   0.714   0.716
  0.717   0.719   0.719   0.720   0.721   0.722   0.723   0.724
  0.725   0.725   0.729   0.729   0.731   0.731   0.732   0.735
  0.736   0.736   0.737   0.738   0.739   0.741   0.742   0.743
  0.745   0.747   0.750   0.751   0.752   0.752   0.753   0.754
  0.756   0.757   0.759   0.760   0.761   0.762   0.764   0.764
  0.766   0.767   0.768   0.770   0.772   0.772   0.772   0.773
  0.775   0.777   0.778   0.780   0.780   0.782   0.783   0.784
  0.785   0.786   0.788   0.790   0.791   0.792   0.793   0.794
  0.796   0.797   0.797   0.798   0.799   0.800   0.802   0.803
  0.804   0.805   0.806   0.806   0.808   0.808   0.809   0.810
  0.811   0.812   0.812   0.813   0.815   0.816   0.816   0.816
  0.817   0.818   0.820   0.820   0.821   0.822   0.823   0.823
  0.825   0.825   0.827   0.829   0.830   0.830   0.831   0.832
  0.833   0.835   0.837   0.838   0.840   0.841   0.843   0.845
  0.847   0.848   0.851   0.854   0.857   0.859   0.863   0.865
  0.866   0.868   0.870   0.872   0.874   0.878   0.881   0.889
  0.894   0.895   0.898   0.899   0.903   0.905   0.907   0.907
  0.908   0.913   0.917   0.918   0.919   0.921   0.921   0.923
  0.927   0.928   0.929   0.930   0.932   0.934   0.936   0.937
  0.938   0.939   0.942   0.943   0.944   0.947   0.949   0.951
  0.954   0.956   0.958   0.959   0.962   0.966   0.967   0.971
  0.972   0.975   0.976   0.981   0.987   0.988   0.989   0.991
  0.995   0.997   0.997   1.001   1.002   1.003   1.005   1.007
  1.009   1.012   1.013   1.015   1.016   1.017   1.019   1.022
  1.023   1.025   1.027   1.028   1.029   1.030   1.033   1.033
  1.035   1.036   1.038   1.040   1.041   1.042   1.044   1.045
  1.046   1.049   1.049   1.050   1.052   1.054   1.056   1.060
  1.062   1.063   1.065   1.067   1.068   1.070   1.071   1.072
  1.074   1.074   1.076   1.077   1.078   1.080   1.081   1.082
  1.085   1.085   1.087   1.088   1.091   1.092   1.092   1.093
  1.096   1.097   1.099   1.100   1.101   1.104   1.105   1.106
  1.111   1.113   1.115   1.117   1.119   1.121   1.125   1.127
  1.129   1.132   1.134   1.136   1.140   1.143   1.144   1.145
  1.146   1.149   1.150   1.152   1.154   1.156   1.157   1.159
  1.162   1.164   1.164   1.167   1.168   1.169   1.170   1.173
  1.173   1.175   1.178   1.178   1.179   1.181   1.182   1.184
  1.185   1.186   1.188   1.189   1.193   1.193   1.196   1.198
  1.200   1.202   1.204   1.206   1.209   1.214   1.217   1.219
  1.220   1.224   1.225   1.229   1.233   1.236   1.238   1.241
  1.244   1.245   1.248   1.248   1.251   1.256   1.256   1.258
  1.261   1.262   1.263   1.266   1.267   1.269   1.270   1.273
  1.274   1.276   1.278   1.279   1.280   1.281   1.283   1.285
  1.289   1.292   1.293   1.295   1.296   1.298   1.301   1.303
  1.305   1.312   1.313   1.316   1.317   1.321   1.323   1.327
  1.330   1.334   1.336   1.339   1.341   1.342   1.346   1.349
  1.350   1.353   1.356   1.358   1.360   1.362   1.364   1.367
  1.368   1.370   1.372   1.375   1.377   1.378   1.379   1.382
  1.383   1.386   1.388   1.391   1.393   1.395   1.399   1.401
  1.405   1.408   1.409   1.411   1.412   1.416   1.419   1.424
  1.425   1.429   1.431   1.435   1.438   1.444   1.448   1.450
  1.455   1.456   1.456   1.457   1.458   1.459   1.461   1.462
  1.465   1.466   1.467   1.469   1.471   1.473   1.475   1.479
  1.481   1.482   1.484   1.485   1.487   1.492   1.494   1.494
  1.497   1.503   1.506   1.509   1.509   1.510   1.513   1.516
  1.521   1.523   1.526   1.529   1.531   1.535   1.537   1.540
  1.541   1.542   1.544   1.546   1.548   1.550   1.556   1.557
  1.558   1.561   1.563   1.566   1.568   1.568   1.571   1.572
  1.573   1.575   1.576   1.578   1.583   1.587   1.588   1.589
  1.589   1.592   1.594   1.601   1.602   1.610   1.614   1.618
  1.622   1.627   1.628   1.631   1.632   1.634   1.637   1.640
  1.648   1.649   1.651   1.657   1.659   1.661   1.669   1.670
  1.671   1.674   1.682   1.687   1.689   1.692   1.694   1.695
  1.695   1.697   1.701   1.703   1.705   1.706   1.711   1.714
  1.716   1.718   1.722   1.723   1.726   1.728   1.729   1.731
  1.732   1.733   1.738   1.739   1.740   1.741   1.744   1.745
  1.747   1.748   1.750   1.751   1.754   1.755   1.757   1.759
  1.760   1.761   1.762   1.764   1.765   1.767   1.767   1.769
  1.770   1.771   1.772   1.773   1.774   1.775   1.776   1.777
  1.780   1.781   1.782   1.783   1.785   1.786   1.787   1.790
  1.791   1.791   1.792   1.794   1.795   1.796   1.797   1.800
  1.801   1.802   1.802   1.804   1.805   1.806   1.807   1.808
  1.810   1.810   1.812   1.813   1.814   1.817   1.819   1.819
  1.820   1.824   1.826   1.829   1.834   1.836   1.838   1.840
  1.842   1.843   1.847   1.849   1.852   1.854   1.855   1.859
  1.860   1.861   1.862   1.864   1.865   1.868   1.869   1.872
  1.874   1.875   1.876   1.878   1.880   1.882   1.884   1.885
  1.889   1.889   1.894   1.895   1.895   1.899   1.902   1.904
  1.907   1.908   1.910   1.911   1.912   1.918   1.920   1.921
  1.923   1.924   1.926   1.927   1.929   1.931   1.932   1.934
  1.935   1.937   1.940   1.941   1.946   1.947   1.948   1.951
  1.952   1.953   1.955   1.957   1.958   1.962   1.963   1.964
  1.967   1.969   1.971   1.974   1.974   1.976   1.977   1.978
  1.980   1.981   1.983   1.985   1.987   1.987   1.989   1.992
  1.994   1.994   1.994   1.996   1.998   1.999   2.000   2.001
  2.004   2.004   2.005   2.007   2.008   2.010   2.011   2.014
  2.015   2.016   2.016   2.018   2.019   2.019   2.020   2.022
  2.024   2.024   2.025   2.028   2.029   2.030   2.031   2.031
  2.033   2.035   2.036   2.037   2.038   2.040   2.041   2.042
  2.044   2.045   2.046   2.047   2.048   2.050   2.051   2.052
  2.053   2.055   2.056   2.058   2.060   2.062   2.063   2.065
  2.066   2.066   2.068   2.068   2.069   2.072   2.073   2.074
  2.075   2.076   2.079   2.080   2.082   2.084   2.086   2.088
  2.088   2.090   2.092   2.093   2.094   2.098   2.099   2.104
  2.105   2.107   2.107   2.110   2.113   2.115   2.118   2.119
  2.120   2.122   2.125   2.127   2.128   2.131   2.137   2.140
  2.143   2.143   2.147   2.151   2.154   2.158   2.161   2.164
  2.166   2.170   2.174   2.181   2.185   2.195   2.204   2.208
  2.209   2.212   2.213   2.216   2.217   2.217   2.219   2.221
  2.226   2.227   2.229   2.232   2.237   2.239   2.239   2.241
  2.243   2.246   2.249   2.255   2.256   2.259   2.264   2.267
  2.270   2.272   2.272   2.274   2.276   2.277   2.280   2.282
  2.283   2.285   2.288   2.289   2.289   2.292   2.296   2.298
  2.300   2.302   2.305   2.306   2.310   2.311   2.315   2.316
  2.318   2.319   2.321   2.324   2.328   2.330   2.332   2.336
  2.338   2.338   2.341   2.345   2.346   2.347   2.350   2.351
  2.355   2.358   2.360   2.362   2.363   2.365   2.367   2.370
  2.371   2.372   2.374   2.376   2.377   2.381   2.382   2.384
  2.386   2.388   2.390   2.391   2.392   2.392   2.397   2.397
  2.400   2.401   2.402   2.404   2.405   2.406   2.408   2.409
  2.411   2.415   2.415   2.419   2.421   2.422   2.424   2.425
  2.428   2.430   2.432   2.433   2.435   2.439   2.448   2.449
  2.450   2.452   2.453   2.455   2.456   2.459   2.460   2.462
  2.464   2.466   2.466   2.469   2.472   2.475   2.476   2.478
  2.479   2.482   2.484   2.486   2.487   2.488   2.492   2.494
  2.495   2.496   2.497   2.499   2.502   2.503   2.505   2.506
  2.508   2.509   2.512   2.515   2.516   2.517   2.519   2.521
  2.523   2.525   2.526   2.527   2.529   2.533   2.534   2.537
  2.538   2.541   2.544   2.545   2.548   2.550   2.553   2.559
  2.564   2.569   2.572   2.574   2.577   2.579   2.581   2.583
  2.585   2.587   2.591   2.593   2.595   2.596   2.599   2.599
  2.601   2.604   2.606   2.610   2.611   2.612   2.615   2.617
  2.618   2.621   2.623   2.625   2.627   2.628   2.629   2.632
  2.633   2.636   2.637   2.639   2.639   2.641   2.642   2.644
  2.646   2.648   2.650   2.652   2.653   2.654   2.655   2.657
  2.660   2.661   2.662   2.665   2.667   2.668   2.669   2.670
  2.673   2.674   2.675   2.676   2.678   2.679   2.680   2.682
  2.683   2.685   2.687   2.689   2.694   2.695   2.699   2.700
  2.706   2.707   2.710   2.712   2.713   2.716   2.718   2.719
  2.722   2.724   2.725   2.729   2.733   2.735   2.736   2.742
  2.743   2.745   2.748   2.751   2.753   2.756   2.758   2.759
  2.760   2.763   2.765   2.766   2.767   2.770   2.771   2.775
  2.779   2.780   2.783   2.783   2.788   2.789   2.793   2.795
  2.796   2.800   2.802   2.811   2.816   2.817   2.817   2.819
  2.823   2.825   2.827   2.829   2.832   2.838   2.841   2.842
  2.843   2.846   2.850   2.852   2.855   2.856   2.861   2.865
  2.866   2.866   2.868   2.871   2.872   2.875   2.876   2.877
  2.878   2.881   2.883   2.884   2.886   2.886   2.890   2.890
  2.893   2.894   2.896   2.897   2.897   2.898   2.901   2.904
  2.905   2.907   2.911   2.912   2.915   2.916   2.918   2.920
  2.921   2.923   2.926   2.927   2.929   2.930   2.932   2.934
  2.935   2.936   2.938   2.939   2.944   2.947   2.949   2.951
  2.952   2.955   2.962   2.965   2.966   2.972   2.974   2.976
  2.980   2.983   2.987   2.992   2.996   3.000   3.001   3.003
  3.004   3.006   3.006   3.009   3.012   3.016   3.017   3.019
  3.021   3.023   3.025   3.026   3.027   3.029   3.035   3.037
  3.043   3.046   3.049   3.049   3.052   3.059   3.061   3.064
  3.066   3.074   3.081   3.082   3.087   3.089   3.092   3.096
  3.110   3.114   3.117   3.124   3.129   3.139   3.146   3.147
  3.151   3.155   3.160   3.166   3.168   3.177   3.183   3.195
  3.199   3.202   3.207   3.216   3.222   3.225   3.230   3.239
  3.252   3.253   3.259   3.262   3.265   3.274   3.278   3.286
  3.290   3.292   3.301   3.303   3.314   3.317   3.319   3.331
  3.334   3.337   3.341   3.350   3.357   3.361   3.363   3.365
  3.370   3.376   3.414   3.422   3.427   3.427   3.429   3.453
  3.456   3.458   3.463   3.469   3.478   3.484   3.484   3.486
  3.490   3.496   3.501   3.509   3.516   3.525   3.543   3.548
  3.553   3.557   3.567   3.574   3.575   3.583   3.601   3.605
  3.621   3.628   3.683   3.695   3.815   3.837   3.982   3.989
  4.074   4.074   4.078   4.079   4.086   4.089   4.093   4.095
  4.099   4.100   4.101   4.105   4.110   4.112   4.115   4.117
  4.123   4.127   4.130   4.131   4.143   4.145   4.149   4.152
  4.154   4.157   4.159   4.166   4.168   4.171   4.177   4.178
  4.181   4.189   4.195   4.198   4.203   4.211   4.237   4.239
  4.242   4.248   4.249   4.252   4.255   4.256   4.257   4.268
  4.270   4.276   4.278   4.284   4.289   4.295   4.296   4.301
  4.304   4.308   4.311   4.326   4.371   4.377   4.386   4.391
  4.393   4.397   4.399   4.406   4.408   4.409   4.410   4.416
  4.418   4.421   4.424   4.428   4.431   4.438   4.455   4.457
  4.484   4.509   4.518   4.525   4.535   4.536   4.546   4.554
  4.556   4.562   4.607   4.619   4.628   4.633   4.635   4.638
  4.641   4.644   4.672   4.688   4.689   4.693   4.695   4.698
  4.701   4.705   4.710   4.713   4.734   4.753   4.790   4.797
  4.838   4.857   4.867   4.875   4.876   4.882   4.887   4.891
  4.899   4.905   4.958   4.966   4.968   4.972   4.975   4.983
  4.988   4.995   4.998   5.017   5.164   5.171   5.179   5.190
  5.195   5.200   5.210   5.215   5.313   5.326   5.334   5.353
  5.364   5.367
 --------------------------------------------------------------
 
          Ground-State Mulliken Net Atomic Charges

     Atom                 Charge (a.u.)
  ----------------------------------------
      1 O                    -0.459040
      2 C                    -0.087075
      3 H                     0.139674
      4 H                     0.125879
      5 H                     0.138824
      6 O                    -0.486660
      7 C                     0.600834
      8 C                    -0.247523
      9 H                     0.129344
     10 H                     0.127666
     11 C                    -0.191924
     12 H                     0.120483
     13 H                     0.109799
     14 C                    -0.200401
     15 H                     0.116668
     16 H                     0.105567
     17 C                     0.029717
     18 C                     0.080841
     19 C                    -0.115238
     20 H                     0.098060
     21 C                    -0.103770
     22 H                     0.086977
     23 C                    -0.081384
     24 H                     0.095229
     25 C                    -0.092428
     26 H                     0.090530
     27 C                    -0.106742
     28 H                     0.084989
     29 C                    -0.007889
     30 C                     0.004396
     31 C                    -0.034803
     32 C                    -0.029258
     33 C                     0.021729
     34 C                    -0.019448
     35 C                     0.045888
     36 C                    -0.005645
     37 C                     0.029480
     38 C                    -0.030877
     39 C                    -0.098409
     40 C                     0.015239
     41 C                    -0.025738
     42 C                    -0.020317
     43 C                     0.016326
     44 C                    -0.018844
     45 C                    -0.093211
     46 C                     0.013211
     47 C                     0.006180
     48 C                    -0.014824
     49 C                     0.041526
     50 C                    -0.032819
     51 C                    -0.012657
     52 C                     0.004209
     53 C                     0.044764
     54 C                     0.002781
     55 C                     0.010161
     56 C                    -0.001719
     57 C                    -0.019937
     58 C                     0.009990
     59 C                     0.000616
     60 C                     0.017285
     61 C                    -0.016238
     62 C                     0.004246
     63 C                    -0.006209
     64 C                    -0.006672
     65 C                    -0.010416
     66 C                    -0.002245
     67 C                     0.002072
     68 C                     0.062547
     69 C                    -0.001004
     70 C                     0.045792
     71 C                    -0.013650
     72 C                    -0.029640
     73 C                    -0.022303
     74 C                    -0.016078
     75 C                     0.012166
     76 C                     0.011247
     77 C                     0.006169
     78 C                    -0.045349
     79 C                     0.039008
     80 C                     0.005961
     81 C                     0.004715
     82 C                    -0.010579
     83 C                     0.005253
     84 C                     0.007520
     85 C                    -0.011919
     86 C                    -0.007514
     87 C                     0.017564
     88 C                     0.029762
     89 O                    -0.478567
     90 C                    -0.076932
     91 H                     0.135566
     92 H                     0.124931
     93 H                     0.123734
     94 O                    -0.467828
     95 C                     0.571413
     96 C                    -0.228919
     97 H                     0.133867
     98 H                     0.127319
     99 C                    -0.193388
    100 H                     0.109452
    101 H                     0.126895
    102 C                    -0.184900
    103 H                     0.106092
    104 H                     0.099485
    105 C                     0.035270
    106 C                     0.059057
    107 C                    -0.104662
    108 H                     0.103047
    109 C                    -0.093098
    110 H                     0.094031
    111 C                    -0.083988
    112 H                     0.090723
    113 C                    -0.079931
    114 H                     0.093882
    115 C                    -0.101655
    116 H                     0.096971
    117 C                    -0.019469
    118 C                     0.004714
    119 C                     0.002024
    120 C                    -0.002558
    121 C                    -0.002425
    122 C                     0.012134
    123 C                     0.010259
    124 C                     0.001984
    125 C                     0.037663
    126 C                    -0.003405
    127 C                    -0.076808
    128 C                     0.005809
    129 C                    -0.016491
    130 C                     0.015018
    131 C                     0.014583
    132 C                    -0.022097
    133 C                    -0.091883
    134 C                     0.045675
    135 C                     0.002182
    136 C                     0.006368
    137 C                    -0.001779
    138 C                     0.039172
    139 C                     0.000047
    140 C                     0.011499
    141 C                     0.002451
    142 C                     0.002443
    143 C                    -0.001558
    144 C                    -0.012071
    145 C                    -0.008182
    146 C                    -0.001598
    147 C                    -0.040330
    148 C                     0.001832
    149 C                    -0.024363
    150 C                    -0.010474
    151 C                    -0.020519
    152 C                     0.011026
    153 C                    -0.023298
    154 C                     0.003113
    155 C                    -0.004484
    156 C                    -0.015936
    157 C                     0.007072
    158 C                     0.032032
    159 C                    -0.001391
    160 C                     0.020628
    161 C                    -0.022514
    162 C                    -0.003494
    163 C                     0.006552
    164 C                    -0.008504
    165 C                     0.002120
    166 C                    -0.014604
    167 C                     0.014835
    168 C                     0.011654
    169 C                    -0.022349
    170 C                    -0.012753
    171 C                     0.019767
    172 C                     0.020512
    173 C                    -0.012973
    174 C                    -0.005987
    175 C                     0.029500
    176 C                    -0.008729
  ----------------------------------------
  Sum of atomic charges =     0.000000

 -----------------------------------------------------------------
                    Cartesian Multipole Moments
 -----------------------------------------------------------------
    Charge (ESU x 10^10)
                 0.0000
    Dipole Moment (Debye)
         X       0.3116      Y      -2.5370      Z      -3.9989
       Tot       4.7460
    Quadrupole Moments (Debye-Ang)
        XX    -834.9524     XY     -14.2561     YY    -818.2210
        XZ      -2.3968     YZ       6.8493     ZZ    -785.3339
    Octopole Moments (Debye-Ang^2)
       XXX    -511.9603    XXY      82.2387    XYY     296.2266
       YYY    -466.7482    XXZ    -259.4323    XYZ     107.0502
       YYZ     -65.9286    XZZ      32.9955    YZZ      16.5471
       ZZZ    -327.4182
    Hexadecapole Moments (Debye-Ang^3)
      XXXX -157260.3490   XXXY   -2014.6080   XXYY  -31837.2096
      XYYY   -1741.4050   YYYY  -47010.4426   XXXZ     529.7148
      XXYZ    -102.3705   XYYZ    -532.8254   YYYZ    1040.9543
      XXZZ  -28256.3709   XYZZ   -1518.7595   YYZZ  -11765.6656
      XZZZ     -39.5827   YZZZ    -358.5677   ZZZZ  -26843.3622
 -----------------------------------------------------------------
Archival summary:
1\1\mn251\SP\ProcedureUnspecified\6-31G**\428\afmv_a\FriOct1216:03:102018FriOct1216:03:102018\0\\#,ProcedureUnspecified,6-31G**,\\0,1\C\C,1,1.36796\C,1,1.38067,2,119.23\C,2,1.38748,1,122.233,3,-5.28811,0\C,4,1.3693,2,120.019,1,0.385464,0\C,5,1.37871,4,120.127,2,-135.978,0\C,6,1.37822,5,120.156,4,-5.79893,0\C,7,1.36322,6,123.423,5,3.22528,0\C,8,1.37542,7,114.908,6,2.25402,0\C,9,1.36147,8,122.609,7,136.012,0\C,8,1.38685,7,108.096,6,140.084,0\C,3,1.39006,1,119.951,2,5.90582,0\C,3,1.3906,1,103.395,2,144.891,0\C,1,1.39586,2,117.674,3,145.713,0\C,14,1.39848,1,124.82,2,0.574734,0\C,15,1.3708,14,119.484,1,-130.962,0\C,15,1.37468,14,117.123,1,-2.57439,0\C,16,1.37823,15,120.409,14,-11.8415,0\C,16,1.40859,15,112.665,14,138.712,0\C,19,1.3997,16,119.56,15,-144.061,0\C,20,1.40775,19,121.885,16,-5.81082,0\C,21,1.33988,20,106.143,19,146.028,0\C,21,1.39222,20,117.564,19,6.32045,0\C,23,1.36321,21,121.907,20,137.449,0\C,24,1.40402,23,117.372,21,-5.67046,0\C,25,1.39179,24,120.342,23,0.556243,0\C,25,1.39764,24,120.773,23,-140.292,0\C,19,1.408,16,104.523,15,-3.83208,0\C,24,1.40852,23,111.081,21,-149.671,0\C,29,1.39946,24,118.839,23,133.511,0\C,30,1.36463,29,125.844,24,-135.173,0\C,30,1.36558,29,121.488,24,11.6714,0\C,32,1.38859,30,112.149,29,-146.732,0\C,33,1.36008,32,122.472,30,140.777,0\C,34,1.37626,33,119.898,32,-141.773,0\C,34,1.38936,33,121.718,32,5.95516,0\C,36,1.39961,34,120.519,33,-6.59728,0\C,33,1.40283,32,104.983,30,-4.70601,0\C,38,1.38116,33,119.098,32,145.99,0\C,39,1.3886,38,118.744,33,-0.740433,0\C,10,1.41077,9,120.444,8,-3.2173,0\C,41,1.38798,10,124.473,9,-142.896,0\C,42,1.39686,41,105.881,10,144.016,0\C,43,1.40792,42,114.469,41,-137.978,0\C,44,1.40922,43,121.245,42,138.417,0\C,45,1.38595,44,117.877,43,-1.25918,0\C,46,1.36724,45,120.575,44,-140.41,0\C,47,1.40439,46,108.686,45,143.137,0\C,48,1.34932,47,108.928,46,-1.15767,0\C,49,1.39604,48,122.733,47,-143.027,0\C,50,1.40823,49,120.962,48,4.73422,0\C,49,1.41254,48,108.757,47,6.14701,0\C,52,1.40723,49,117.958,48,-144.32,0\C,53,1.39443,52,122.166,49,1.04857,0\C,26,1.41641,25,109.301,24,-148.751,0\C,35,1.41821,34,106.163,33,146.154,0\C,56,1.37606,35,108.762,34,0.930739,0\C,2,1.43089,1,120.519,3,-147.845,0\C,18,1.46015,16,121.93,15,-1.70271,0\C,13,1.46266,3,112.425,1,10.36,0\C,60,1.48459,13,129.836,3,143.638,0\C,61,1.51913,60,119.581,13,-142.712,0\C,62,1.37095,61,122.68,60,48.4831,0\H,63,1.08621,62,114.587,61,3.79031,0\C,62,1.42638,61,118.723,60,-121.201,0\H,65,1.08669,62,130.585,61,-5.68339,0\C,63,1.44286,62,123.37,61,-166.585,0\H,67,1.08609,63,120.481,62,177.03,0\C,67,1.41901,63,120.792,62,-7.09299,0\H,69,1.08521,67,125.852,63,-178.777,0\C,69,1.428,67,116.247,63,4.373,0\H,71,1.08604,69,117.351,67,-179.226,0\C,61,1.59776,60,117.876,13,-2.54011,0\H,73,1.09648,61,107.7,60,-107.923,0\H,73,1.09695,61,111.631,60,11.7333,0\C,73,1.59453,61,110.502,60,136.478,0\H,76,1.09696,73,102.172,61,79.9606,0\H,76,1.0971,73,111.96,61,-39.3748,0\C,76,1.54128,73,115.681,61,-167.568,0\H,79,1.09662,76,104.29,73,71.9956,0\H,79,1.0968,76,104.226,73,-45.0209,0\C,79,1.55863,76,112.281,73,-170.347,0\O,82,1.24434,79,120.475,76,135.343,0\O,82,1.35993,79,112.432,76,-45.3083,0\C,84,1.45815,82,113.962,79,173.442,0\H,85,1.09614,84,108.092,82,-64.2988,0\H,85,1.09684,84,107.627,82,58.849,0\H,85,1.09721,84,103.874,82,168.012,0\C,68,2.57337,67,120.553,63,-7.08278,0\C,89,1.37878,68,91.4507,67,-113.501,0\C,90,1.39245,89,120.032,68,-79.3544,0\C,90,1.39298,89,109.816,68,135.99,0\C,92,1.39618,90,119.704,89,141.297,0\C,93,1.38086,92,121.511,90,1.477,0\C,89,1.39664,68,81.5559,67,124.233,0\C,95,1.40051,89,122.404,68,-134.342,0\C,96,1.3635,95,118.192,89,-3.90275,0\C,97,1.37646,96,121.496,95,0.678792,0\C,98,1.38605,97,106.924,96,-141.425,0\C,99,1.34134,98,112.708,97,-2.72931,0\C,100,1.39472,99,119.709,98,144.663,0\C,101,1.37278,100,120.361,99,3.02957,0\C,97,1.39819,96,117.849,95,-135.888,0\C,89,1.40082,68,134.885,67,2.55251,0\C,104,1.40042,89,109.042,68,-109.277,0\C,99,1.40813,98,115.442,97,150.029,0\C,106,1.37472,99,125.965,98,-5.42425,0\C,107,1.3957,106,108.244,99,-138.811,0\C,108,1.36624,107,105.957,106,-1.53646,0\C,109,1.36636,108,111.466,107,-3.3337,0\C,108,1.39602,107,116.745,106,138.079,0\C,102,1.41129,101,109.627,100,-142.486,0\C,112,1.36829,102,106.479,101,3.25536,0\C,113,1.40922,112,121.2,102,143.312,0\C,114,1.40513,113,118.994,112,-138.786,0\C,115,1.37579,114,108.753,113,143.122,0\C,115,1.39437,114,121.892,113,-4.38991,0\C,117,1.38161,115,121.034,114,140.698,0\C,118,1.39169,117,109.884,115,-143.532,0\C,116,1.39891,115,119.433,114,-143.825,0\C,120,1.38597,116,120.322,115,-4.92585,0\C,121,1.38834,120,106.461,116,141.043,0\C,119,1.41157,118,107.317,117,2.70653,0\C,123,1.38112,119,107.458,118,-3.62068,0\C,94,1.41405,93,112.273,92,-144.94,0\C,125,1.38853,94,104.194,93,4.75502,0\C,126,1.40875,125,122.68,94,142.72,0\C,127,1.38412,126,121.296,125,-137.6,0\C,112,1.41453,102,118.737,101,140.209,0\C,129,1.35314,112,123.759,102,-139.215,0\C,130,1.40565,129,110.165,112,142.556,0\C,131,1.41025,130,122.768,129,-140.613,0\C,132,1.36657,131,119.084,130,1.43528,0\C,132,1.38382,131,120.982,130,142.935,0\C,133,1.40458,132,109.683,131,147.092,0\C,91,1.41668,90,119.948,89,-4.05286,0\C,136,1.35859,91,118.726,90,4.5427,0\C,137,1.39008,136,119.639,91,-144.101,0\C,138,1.41114,137,107.537,136,145.179,0\C,101,1.41682,100,118.55,99,-135.851,0\C,114,1.42213,113,118.088,112,-2.37646,0\C,141,1.41962,114,105.839,113,-141.389,0\C,94,1.42537,93,120.41,92,5.05873,0\C,136,1.43711,91,110.853,90,-147.764,0\C,144,1.41823,136,117.162,91,140.819,0\C,145,1.39199,144,121.055,136,-131.633,0\C,143,1.47489,94,122.552,93,-148.373,0\C,147,1.52038,143,124.124,94,-66.5886,0\C,148,1.44972,147,116.433,143,-8.24045,0\C,149,1.43194,148,120.411,147,107.273,0\H,150,1.08616,149,125.333,148,15.8639,0\C,150,1.40436,149,118.958,148,-170.497,0\H,152,1.08653,150,113.887,149,173.05,0\C,152,1.41298,150,119.431,149,8.99932,0\H,154,1.086,152,123.144,150,174.694,0\C,154,1.39545,152,121.431,150,-9.88141,0\H,156,1.08613,154,118.158,152,-177.124,0\C,156,1.40152,154,120.334,152,4.62688,0\H,158,1.08597,156,118.344,154,-175.248,0\C,148,1.4631,147,61.8678,143,104.61,0\C,148,1.53819,147,116.674,143,-148.581,0\H,161,1.09637,148,107.069,147,-54.3238,0\H,161,1.09665,148,109.798,147,58.6441,0\C,161,1.53348,148,122.09,147,178.633,0\H,164,1.09707,161,111.098,148,-56.0918,0\H,164,1.09717,161,111.872,148,-170.56,0\C,164,1.49811,161,107.269,148,63.0133,0\H,167,1.09704,164,105.949,161,-55.6114,0\H,167,1.09777,164,112.128,161,65.5818,0\C,167,1.54851,164,118.718,161,-162.48,0\O,170,1.21457,167,121.587,164,-136.265,0\O,170,1.37761,167,115.859,164,42.046,0\C,172,1.43904,170,120.966,167,-176.319,0\H,173,1.09638,172,104.577,170,-172.084,0\H,173,1.09656,172,108.978,170,77.9561,0\H,173,1.09738,172,110.246,170,-50.535,0\\\@

 Total job time:  865.69s(wall), 8269.75s(cpu) 
 Fri Oct 12 16:03:10 2018

        *************************************************************
        *                                                           *
        *  Thank you very much for using Q-Chem.  Have a nice day.  *
        *                                                           *
        *************************************************************


