
Running Job 1 of 1 ./9/3.qcin
qchem ./9/3.qcin_32267.0 /tmpu/cab_g/afmv_a/scratch_qchem/qchem32267/ 1
/tmpu/appuserlic/qchem4.4/serial-multicore/exe/qcprog.exe_s ./9/3.qcin_32267.0 /tmpu/cab_g/afmv_a/scratch_qchem/qchem32267/
Check license passed

                  Welcome to Q-Chem
     A Quantum Leap Into The Future Of Chemistry


 Q-Chem 4.4, Q-Chem, Inc., Pleasanton, CA (2016)

 Y. Shao,  Z. Gan,  E. Epifanovsky,  A. T. B. Gilbert,  M. Wormit,  
 J. Kussmann,  A. W. Lange,  A. Behn,  J. Deng,  X. Feng,  D. Ghosh,  
 M. Goldey,  P. R. Horn,  L. D. Jacobson,  I. Kaliman,  F. Rob,  
 R. Z. Khaliullin,  T. Kus,  A. Landau,  J. Liu,  E. I. Proynov,  Y. M. Rhee,  
 R. M. Richard,  M. A. Rohrdanz,  R. P. Steele,  E. J. Sundstrom,  
 H. L. Woodcock III,  P. M. Zimmerman,  D. Zuev,  B. Albrecht,  E. Alguire,  
 B. Austin,  S. A. Baeppler,  G. J. O. Beran,  Y. A. Bernard,  E. Berquist,  
 K. Brandhorst,  K. B. Bravaya,  S. T. Brown,  D. Casanova,  C.-M. Chang,  
 Y. Chen,  S. H. Chien,  K. D. Closser,  M. P. Coons,  D. L. Crittenden,  
 S. Dasgupta,  M. Diedenhofen,  R. A. DiStasio Jr.,  H. Do,  A. D. Dutoi,  
 R. G. Edgar,  P.-T. Fang,  S. Fatehi,  Q. Feng,  L. Fusti-Molnar,  
 A. Ghysels,  A. Golubeva-Zadorozhnaya,  J. Gomes,  A. Gunina,  
 M. W. D. Hanson-Heine,  P. H. P. Harbach,  A. W. Hauser,  J. E. Herr,  
 E. G. Hohenstein,  Z. C. Holden,  K. Hui,  T.-C. Jagau,  H. Ji,  B. Kaduk,  
 K. Khistyaev,  Jaehoon Kim,  Jihan Kim,  R. A. King,  P. Klunzinger,  
 K. Koh,  D. Kosenkov,  T. Kowalczyk,  C. M. Krauter,  A. Kunitsa,  
 K. U. Lao,  A. Laurent,  K. V. Lawler,  J. Lee,  D. Lefrancois,  S. Lehtola,  
 S. V. Levchenko,  C. Y. Lin,  Y.-S. Lin,  F. Liu,  E. Livshits,  
 R. C. Lochan,  A. Luenser,  P. Manohar,  S. F. Manzer,  S.-P. Mao,  Y. Mao,  
 N. Mardirossian,  A. V. Marenich,  L. A. Martinez-Martinez,  S. A. Maurer,  
 N. J. Mayhall,  J.-M. Mewes,  A. F. Morrison,  K. Nanda,  T. S. Nguyen-Beck,  
 C. M. Oana,  R. Olivares-Amaya,  D. P. O'Neill,  J. A. Parkhill,  
 T. M. Perrine,  R. Peverati,  P. A. Pieniazek,  F. Plasser,  A. Prociuk,  
 D. R. Rehn,  E. Rosta,  N. J. Russ,  N. Sergueev,  S. M. Sharada,  
 S. Sharma,  D. W. Small,  A. Sodt,  T. Stauch,  T. Stein,  D. Stuck,  
 Y.-C. Su,  A. J. W. Thom,  T. Tsuchimochi,  L. Vogt,  O. Vydrov,  T. Wang,  
 M. A. Watson,  J. Wenzel,  A. White,  C. F. Williams,  V. Vanovschi,  
 K. Yao,  S. Yeganeh,  S. R. Yost,  Z.-Q. You,  I. Y. Zhang,  X. Zhang,  
 Y. Zhao,  B. R. Brooks,  G. K. L. Chan,  D. M. Chipman,  C. J. Cramer,  
 W. A. Goddard III,  M. S. Gordon,  W. J. Hehre,  A. Klamt,  
 H. F. Schaefer III,  M. W. Schmidt,  C. D. Sherrill,  D. G. Truhlar,  
 A. Warshel,  X. Xu,  A. Aspuru-Guzik,  R. Baer,  A. T. Bell,  N. A. Besley,  
 J.-D. Chai,  A. Dreuw,  B. D. Dunietz,  T. R. Furlani,  S. R. Gwaltney,  
 C.-P. Hsu,  Y. Jung,  J. Kong,  D. S. Lambrecht,  W. Liang,  C. Ochsenfeld,  
 V. A. Rassolov,  L. V. Slipchenko,  J. E. Subotnik,  T. Van Voorhis,  
 J. M. Herbert,  A. I. Krylov,  P. M. W. Gill,  M. Head-Gordon

 Contributors to earlier versions of Q-Chem not listed above: 
 R. D. Adamson,  J. Baker,  E. F. C. Byrd,  A. K. Chakraborty,  C.-L. Cheng,  
 H. Dachsel,  R. J. Doerksen,  G. Hawkins,  A. Heyden,  S. Hirata,  
 G. Kedziora,  F. J. Keil,  C. Kelley,  P. P. Korambath,  W. Kurlancheek,  
 A. M. Lee,  M. S. Lee,  D. Liotard,  I. Lotan,  P. E. Maslen,  N. Nair,  
 D. Neuhauser,  R. Olson,  B. Peters,  J. Ritchie,  N. E. Schultz,  
 N. Shenvi,  A. C. Simmonett,  K. S. Thanthiriwatte,  Q. Wu,  W. Zhang

 Please cite Q-Chem as follows:
 Y. Shao et al., Mol. Phys. 113, 184-215 (2015)
 DOI: 10.1080/00268976.2014.952696

 Q-Chem 4.4.2 for Intel X86 Linux

 Parts of Q-Chem use Armadillo 5.200.1 (Boston Tea Smuggler).
 http://arma.sourceforge.net/

 Q-Chem begins on Fri Oct 12 16:46:44 2018  

Host: 
0

     Scratch files written to /tmpu/cab_g/afmv_a/scratch_qchem/qchem32267//
 Dec716 11556_ 22328  22283 4050   
Processing $rem in /tmpu/appuserlic/qchem4.4/serial-multicore/config/preferences.
 MEM_TOTAL  2000 
FILE_GEOM_ORG=        593

Checking the input file for inconsistencies... 	...done.

--------------------------------------------------------------
User input:
--------------------------------------------------------------
$comment
SP
$end

$rem
MEM_STATIC 5000
MEM_TOTAL 20000
JOBTYPE SP
EXCHANGE B3LYP
BASIS 6-31g(d,p)
$end

$molecule
0 1
O         -17.149000    -13.909000     -1.238000
C         -17.890000    -15.055000     -1.751000
H         -17.460000    -15.486000     -2.663000
H         -18.939000    -14.831000     -1.983000
H         -17.967000    -15.795000     -0.945000
O         -15.118000    -15.092000     -1.213000
C         -15.816000    -14.171000     -0.872000
C         -15.239000    -13.061000      0.071000
H         -15.834000    -13.141000      0.989000
H         -15.392000    -12.074000     -0.384000
C         -13.756000    -13.012000      0.470000
H         -13.542000    -12.160000      1.127000
H         -13.564000    -13.956000      0.995000
C         -12.804000    -12.843000     -0.768000
H         -13.309000    -13.262000     -1.647000
H         -12.728000    -11.760000     -0.932000
C         -11.395000    -13.456000     -0.834000
C         -11.324000    -14.731000      0.019000
C         -10.722000    -14.762000      1.308000
H         -10.306000    -13.852000      1.731000
C         -10.669000    -15.918000      2.066000
H         -10.351000    -15.774000      3.095000
C         -11.149000    -17.085000      1.570000
H         -11.213000    -17.892000      2.294000
C         -11.721000    -17.129000      0.316000
H         -12.223000    -18.074000      0.129000
C         -11.950000    -15.967000     -0.415000
H         -12.468000    -15.954000     -1.369000
C          -5.853000    -13.172000     -1.110000
C          -6.405000    -14.943000     -2.617000
C          -5.406000    -12.763000     -6.450000
C          -8.362000     -8.829000     -2.287000
C          -8.766000    -11.856000     -7.195000
C          -6.645000    -14.288000     -1.443000
C          -8.774000     -8.880000     -5.103000
C          -4.299000    -12.741000     -4.314000
C          -9.976000    -14.358000     -4.209000
C          -9.638000     -9.243000     -2.870000
C         -10.646000    -13.374000     -2.180000
C         -10.770000    -13.207000     -4.543000
C         -10.581000    -10.434000     -4.561000
C          -8.490000     -9.600000     -6.294000
C          -8.620000    -14.938000     -2.293000
C          -6.566000    -10.881000     -6.964000
C         -10.059000    -12.652000     -1.039000
C          -9.871000    -11.109000     -1.221000
C          -7.371000    -11.962000     -7.287000
C          -5.073000     -9.449000     -3.400000
C          -4.787000    -10.610000     -5.347000
C          -4.165000    -11.320000     -4.323000
C          -4.573000    -13.478000     -3.137000
C          -8.563000    -10.753000     -0.788000
C          -9.866000    -14.474000     -2.825000
C          -5.322000    -14.591000     -3.458000
C          -9.852000     -9.294000     -4.283000
C          -7.631000    -15.339000     -3.212000
C         -10.366000    -12.479000     -5.717000
C          -6.466000     -9.678000     -1.391000
C          -4.860000    -13.438000     -5.346000
C         -11.047000    -12.548000     -3.365000
C          -4.758000    -11.347000     -2.000000
C         -10.300000    -11.112000     -5.719000
C          -8.963000    -14.810000     -5.099000
C          -6.576000     -8.986000     -5.385000
C          -7.548000     -8.494000     -4.513000
C          -8.690000    -14.135000     -6.302000
C          -7.892000     -9.589000     -1.245000
C         -10.341000    -10.363000     -2.343000
C          -6.101000     -8.953000     -2.525000
C          -8.661000    -13.092000     -0.681000
C          -6.755000    -14.992000     -5.426000
C         -10.903000    -11.089000     -3.397000
C          -9.412000    -13.014000     -6.662000
C          -5.749000    -10.879000     -1.086000
C          -6.628000    -13.158000     -7.000000
C          -4.811000    -12.752000     -1.981000
C          -5.383000    -11.336000     -6.411000
C          -7.787000    -15.371000     -4.611000
C          -7.319000    -14.269000     -6.535000
C          -8.032000    -14.241000     -1.169000
C          -7.897000    -11.927000     -0.470000
C          -5.379000     -9.469000     -4.744000
C          -5.507000    -14.592000     -4.871000
C          -9.254000    -10.690000     -6.593000
C          -7.316000     -8.456000     -3.116000
C          -7.148000     -9.621000     -6.490000
C          -6.478000    -11.981000     -0.614000
C          -4.389000    -10.647000     -3.149000
O          -7.986000    -28.747000     -2.722000
C          -7.673000    -30.065000     -2.155000
H          -7.688000    -30.149000     -1.061000
H          -6.692000    -30.413000     -2.500000
H          -8.442000    -30.766000     -2.502000
O          -9.989000    -28.833000     -1.775000
C          -9.252000    -28.226000     -2.523000
C          -9.407000    -26.905000     -3.223000
H         -10.181000    -26.254000     -2.797000
H          -9.668000    -27.031000     -4.281000
C          -7.989000    -26.181000     -3.166000
H          -7.573000    -26.097000     -2.154000
H          -7.292000    -26.725000     -3.816000
C          -7.989000    -24.816000     -3.763000
H          -6.920000    -24.651000     -3.946000
H          -8.386000    -24.923000     -4.781000
C          -8.628000    -23.757000     -3.062000
C          -8.257000    -23.711000     -1.565000
C          -8.980000    -24.449000     -0.579000
H          -9.811000    -25.084000     -0.875000
C          -8.671000    -24.287000      0.801000
H          -9.085000    -24.944000      1.560000
C          -7.542000    -23.510000      1.109000
H          -7.279000    -23.307000      2.142000
C          -6.801000    -22.804000      0.139000
H          -5.915000    -22.220000      0.369000
C          -7.169000    -22.913000     -1.198000
H          -6.709000    -22.397000     -2.034000
C         -13.586000    -21.528000     -2.465000
C         -12.027000    -19.698000     -2.084000
C         -13.017000    -17.410000     -5.833000
C         -12.685000    -23.760000     -6.902000
C         -10.259000    -18.630000     -7.581000
C         -12.394000    -21.036000     -1.925000
C         -11.792000    -21.722000     -8.700000
C         -14.523000    -18.558000     -4.290000
C          -8.691000    -20.239000     -4.197000
C         -11.316000    -23.627000     -7.119000
C          -8.977000    -22.484000     -3.805000
C          -8.383000    -20.814000     -5.444000
C          -9.689000    -22.064000     -7.521000
C         -11.512000    -20.315000     -8.840000
C         -10.076000    -20.883000     -2.311000
C         -12.656000    -18.362000     -7.859000
C         -10.062000    -23.488000     -3.530000
C         -10.737000    -24.114000     -4.771000
C         -11.426000    -17.847000     -7.359000
C         -15.248000    -21.219000     -6.527000
C         -14.626000    -19.049000     -6.616000
C         -15.107000    -19.248000     -5.391000
C         -14.221000    -19.248000     -3.124000
C         -12.140000    -24.066000     -4.585000
C          -9.032000    -21.127000     -3.236000
C         -12.959000    -18.797000     -2.619000
C         -10.880000    -22.560000     -8.044000
C         -10.652000    -19.617000     -2.333000
C          -8.695000    -20.092000     -6.646000
C         -14.315000    -23.265000     -5.397000
C         -13.445000    -17.625000     -4.515000
C          -8.654000    -22.156000     -5.249000
C         -15.135000    -21.414000     -4.077000
C          -9.343000    -20.758000     -7.674000
C          -9.182000    -18.906000     -4.131000
C         -13.720000    -20.479000     -8.295000
C         -13.164000    -21.800000     -8.395000
C          -9.566000    -18.236000     -5.293000
C         -13.101000    -23.962000     -5.617000
C         -10.290000    -23.764000     -6.106000
C         -14.622000    -22.516000     -6.577000
C         -11.196000    -23.060000     -2.687000
C         -11.086000    -17.675000     -3.767000
C          -9.331000    -22.774000     -6.336000
C          -9.234000    -18.776000     -6.557000
C         -14.579000    -22.687000     -4.119000
C         -11.631000    -17.253000     -6.113000
C         -14.508000    -20.637000     -3.059000
C         -13.597000    -18.118000     -6.895000
C         -10.178000    -18.608000     -3.224000
C         -10.699000    -17.470000     -5.080000
C         -11.184000    -21.802000     -2.062000
C         -12.374000    -23.382000     -3.353000
C         -14.731000    -20.232000     -7.438000
C         -12.488000    -17.783000     -3.519000
C         -10.296000    -19.869000     -8.292000
C         -13.613000    -22.829000     -7.515000
C         -12.688000    -19.565000     -8.575000
C         -13.607000    -22.724000     -3.132000
C         -15.340000    -20.640000     -5.262000
$end

--------------------------------------------------------------
 ----------------------------------------------------------------
             Standard Nuclear Orientation (Angstroms)
    I     Atom           X                Y                Z
 ----------------------------------------------------------------
    1      O       1.6618040639    -7.6462489107    -2.6544392925
    2      C       0.3503352234    -8.1118121982    -2.2198517805
    3      H      -0.0154323842    -7.6161232412    -1.3127070759
    4      H       0.3126007772    -9.1896096030    -2.0165542995
    5      H      -0.3448952439    -7.9935954728    -3.0599972460
    6      O       0.9852160919    -5.3951839398    -2.6576350466
    7      C       1.7354099417    -6.2801531419    -2.9828498972
    8      C       2.9959642157    -5.9547858405    -3.8542952721
    9      H       2.8273962548    -6.4913831885    -4.7959943369
   10      H       3.8957978570    -6.3454228496    -3.3620502670
   11      C       3.4081600138    -4.5146789213    -4.1964614384
   12      H       4.3191791299    -4.4891014751    -4.8069849549
   13      H       2.5627418923    -4.0944140890    -4.7552732767
   14      C       3.7295591948    -3.6598949152    -2.9183550776
   15      H       3.1602043139    -4.0750251297    -2.0776833673
   16      H       4.7907352700    -3.8430389763    -2.7040548432
   17      C       3.4576460047    -2.1488221691    -2.8281975878
   18      C       2.2794979628    -1.7606338542    -3.7334887143
   19      C       2.4553282604    -1.1358283474    -4.9998171808
   20      H       3.4575245143    -0.9333276958    -5.3668064924
   21      C       1.3837108435    -0.7953129663    -5.8056672829
   22      H       1.6502673835    -0.4939648297    -6.8150422933
   23      C       0.1132751407    -1.0018456549    -5.3794720537
   24      H      -0.6482350665    -0.8574086244    -6.1402355836
   25      C      -0.1266465697    -1.5790968853    -4.1503038024
   26      H      -1.1706615888    -1.8510859724    -4.0236050403
   27      C       0.9113512218    -2.0914115807    -3.3775553066
   28      H       0.7547481845    -2.6219415551    -2.4434126864
   29      C       5.0051833932     3.1649031500    -2.3382514031
   30      C       3.0793721716     3.0040101228    -0.9319944662
   31      C       5.2316591382     3.3696452852     3.0273314539
   32      C       8.5811127586    -0.3176557860    -1.0628803078
   33      C       5.2947837906    -0.1268965589     3.6887574974
   34      C       3.7202755005     2.6472861982    -2.0839024333
   35      C       8.2912151989    -0.7770165202     1.7312471268
   36      C       5.6196846879     4.4942425178     0.9361245686
   37      C       2.7372223592    -0.6437319063     0.5531457949
   38      C       7.8529430370    -1.4759460901    -0.5455859738
   39      C       3.6418851923    -1.4737593761    -1.4535022953
   40      C       3.6538523292    -1.6926934682     0.9084796375
   41      C       6.3903360676    -2.1569659185     1.0557271893
   42      C       7.5965090358    -0.3627723359     2.8988609768
   43      C       2.5869579330     0.8579448299    -1.3359226481
   44      C       6.7641735682     1.7896976349     3.5813034244
   45      C       4.5380542384    -1.0430907822    -2.5393842423
   46      C       6.0711129360    -1.2252364460    -2.2827308054
   47      C       5.5107607754     1.2515227354     3.8267400729
   48      C       8.6847757314     2.9961435312     0.1407301248
   49      C       7.5233030088     3.4963054577     2.0437133517
   50      C       7.0306030191     4.2924451971     1.0127098428
   51      C       4.9007325575     4.4295960264    -0.2814560921
   52      C       6.7426577186    -0.0260684374    -2.6516653417
   53      C       2.7212170858    -0.4749274532    -0.8296994198
   54      C       3.6293325366     3.9533774381    -0.0373888002
   55      C       7.6811115875    -1.7075737872     0.8550526530
   56      C       2.3796709404     1.8898163174    -0.4001041101
   57      C       4.3943792989    -1.4995062319     2.1274031376
   58      C       8.2424098787     1.7460887124    -1.9258241093
   59      C       4.7594354861     4.0857490818     1.9152356060
   60      C       4.2902619065    -2.0862159411    -0.2485929242
   61      C       6.9862094171     3.7807373617    -1.3292746361
   62      C       5.7374270683    -1.7546157729     2.1921396140
   63      C       2.4874558060     0.4241065197     1.4586350356
   64      C       8.6837377467     1.3771650452     2.0881670517
   65      C       8.9809458759     0.3393867217     1.2039072035
   66      C       3.1446155203     0.5016051885     2.6994001488
   67      C       8.0055033102     0.3428638262    -2.1195976800
   68      C       6.6290108006    -1.8844980661    -1.1467624568
   69      C       8.9730302950     1.9030729783    -0.7483880187
   70      C       4.4534297125     0.4275511450    -2.8652968249
   71      C       2.8061624965     2.6046241069     1.8574910211
   72      C       5.7392294076    -2.2877447149    -0.1470038795
   73      C       4.0474738732    -0.4710185535     3.0819898130
   74      C       7.2578558601     2.7311507037    -2.2572170144
   75      C       4.5361707183     2.2602373793     3.5144853887
   76      C       5.6101405189     4.0577841708    -1.4121869568
   77      C       6.6251188066     3.0597584408     3.0522171152
   78      C       2.2404721198     1.7104814727     0.9895086783
   79      C       3.3205775833     1.8596894433     2.9760416303
   80      C       3.4582012774     1.2949959135    -2.4058994634
   81      C       5.7731654034     0.9034420532    -2.9967028740
   82      C       8.5252573814     2.6695849503     1.4704990480
   83      C       3.5127972695     3.7382628850     1.3665129986
   84      C       6.3451007569    -0.8583890854     3.1214331159
   85      C       9.1435036100     0.5911443690    -0.1806757915
   86      C       7.8774072805     0.9416662316     3.1424943076
   87      C       6.0425479333     2.2917400427    -2.8036361888
   88      C       7.6927030123     3.9470704827    -0.1378208633
   89      O     -10.7013842963     4.6880156335    -1.4940252607
   90      C     -11.8798540569     5.3142858909    -2.1068682975
   91      H     -11.9086871737     5.3468237523    -3.2033293953
   92      H     -12.0080072239     6.3404352790    -1.7420612264
   93      H     -12.7570344009     4.7217654753    -1.8193875134
   94      O     -11.2009755857     2.7849323292    -2.5162270415
   95      C     -10.4788190616     3.3407698322    -1.7158167560
   96      C      -9.2676131812     2.8640359155    -0.9643042227
   97      H      -8.7929480873     1.9703781295    -1.3890651085
   98      H      -9.5049510228     2.6131610972     0.0768939210
   99      C      -8.2324183161     4.0747414045    -0.9376057169
  100      H      -8.0022787011     4.4849317705    -1.9290872454
  101      H      -8.6325299340     4.8629356821    -0.2872938886
  102      C      -6.9372146129     3.7409867204    -0.2813365814
  103      H      -6.5383185540     4.7369547967    -0.0524162348
  104      H      -7.1855953513     3.3544848692     0.7158120173
  105      C      -6.0207780314     2.8901927112    -0.9577214910
  106      C      -5.8130576867     3.2777082063    -2.4367245334
  107      C      -6.6469777455     2.7720527046    -3.4800168458
  108      H      -7.4718124052     2.1051367625    -3.2427977268
  109      C      -6.3469807522     3.0692734741    -4.8393499978
  110      H      -7.0421964514     2.8393533912    -5.6411840749
  111      C      -5.3144549506     3.9929966462    -5.0714275070
  112      H      -5.0031442272     4.2272064719    -6.0841951956
  113      C      -4.5066192147     4.5240233366    -4.0448657320
  114      H      -3.7219552447     5.2546508014    -4.2164406772
  115      C      -4.7666132926     4.1581576835    -2.7282718678
  116      H      -4.2016435806     4.4637807203    -1.8541118230
  117      C      -4.9753071535    -2.4346178092    -1.6359526949
  118      C      -2.8164264828    -1.3369770313    -1.8787715012
  119      C      -1.0164057477    -2.9278142266     1.9290109730
  120      C      -7.1624106820    -1.1491638257     2.7280798682
  121      C      -1.6514011578    -0.0060177399     3.7207570822
  122      C      -4.1930723849    -1.3772729802    -2.1099344239
  123      C      -5.0680339128    -0.8022448771     4.6456121865
  124      C      -2.4016181043    -4.0848244647     0.2830149110
  125      C      -2.6765300836     1.9789200626     0.3283989635
  126      C      -6.7267393412     0.1450304711     3.0004593923
  127      C      -4.9034197118     2.2350129048    -0.1724643312
  128      C      -3.2277006674     2.3812256140     1.5591951411
  129      C      -4.8516847260     1.3514327184     3.5300496181
  130      C      -3.6435738729    -0.8621501871     4.8576828082
  131      C      -3.5264737639     0.8304574125    -1.6333824417
  132      C      -1.9615257128    -2.4055405730     3.9228212655
  133      C      -6.1162622561     1.4217231922    -0.5308479328
  134      C      -6.9447402926     0.8805847846     0.6559019848
  135      C      -1.1501893869    -1.3176350748     3.4911732684
  136      C      -5.2695997226    -4.2244034712     2.3724919122
  137      C      -3.0220255421    -4.1287638067     2.5797800155
  138      C      -3.2639515129    -4.5190438101     1.3304840764
  139      C      -2.9418379187    -3.6008342332    -0.9005289234
  140      C      -7.2140794388    -0.4897037880     0.4212220923
  141      C      -3.5688058839     1.8789779855    -0.6826408366
  142      C      -2.1849863488    -2.4667532511    -1.3388279391
  143      C      -5.6366989367     0.2964213522     3.9869190810
  144      C      -2.4315183461    -0.0256123341    -1.5765210136
  145      C      -2.6605685258     1.8791376220     2.7797281321
  146      C      -6.9824170771    -2.8113238187     1.1880225771
  147      C      -1.2567952328    -3.2605024839     0.5880917290
  148      C      -4.5841072251     2.4360834930     1.2954113973
  149      C      -5.3068444053    -4.0074361319    -0.0779839615
  150      C      -3.5106860627     1.3789393455     3.7530450680
  151      C      -1.4922483835     1.1920396416     0.3034578701
  152      C      -4.2871610852    -2.9563915396     4.2259125512
  153      C      -5.4464530654    -2.1099861906     4.2876951544
  154      C      -0.9902757119     0.6331139076     1.4791387200
  155      C      -7.3890848192    -1.4740530381     1.4211174222
  156      C      -6.5696839229     1.1997898625     2.0204439731
  157      C      -6.3867673615    -3.3143034568     2.3879654507
  158      C      -5.9202989081     0.2406920683    -1.3948808319
  159      C      -0.7195710001    -0.9370069130    -0.0749644193
  160      C      -5.3973616118     1.8950044770     2.3286939341
  161      C      -1.5027544306     1.0501477855     2.7293260290
  162      C      -6.4165298419    -3.1707813184    -0.0719877176
  163      C      -0.5567163383    -1.6242835920     2.2659657646
  164      C      -4.3542934099    -3.5538218669    -1.0371829500
  165      C      -1.8932904689    -3.3529617533     2.9368952751
  166      C      -1.3872516203     0.1771141795    -0.6251814496
  167      C      -0.4981508615    -0.6417109870     1.2590282487
  168      C      -4.6634245584    -0.0256912539    -1.9628947357
  169      C      -6.5406331122    -0.8459093182    -0.7870922979
  170      C      -4.2377539730    -3.9752452326     3.3443939244
  171      C      -1.1370216057    -2.2683366509    -0.3783917101
  172      C      -2.9000414834     0.2294660725     4.3745580546
  173      C      -6.5049117742    -2.2840182595     3.3473654246
  174      C      -3.1742943278    -2.1737288089     4.5833851100
  175      C      -6.1762050667    -2.1925164681    -1.0235989224
  176      C      -4.6635017719    -4.4172324061     1.1317694307
 ----------------------------------------------------------------
 Molecular Point Group                 C1    NOp =  1
 Largest Abelian Subgroup              C1    NOp =  1
 Nuclear Repulsion Energy = 34801.1670066073 hartrees
 There are      462 alpha and      462 beta electrons
 Requested basis set is 6-31G(d,p)
 There are 676 shells and 2360 basis functions

 Total QAlloc Memory Limit  20000 MB
 Mega-Array Size      4888 MB
 MEM_STATIC part      5000 MB
 A cutoff of  1.0D-08 yielded  37492 shell pairs
 There are    528318 function pairs
 
 -------------------------------------------------------
 OpenMP Integral Computing Module                       
 Release: version 1.0, May 2013, Q-Chem Inc. Pittsburgh 
 -------------------------------------------------------
 Integral Job Info:
 Integral job number is                      11
 Integral operator is                         1
 short-range coefficients                     0
 long-range coefficients              100000000
 Omega coefficients                           0
 if combine SR and LR in K                    0
 Integral screening is                        0
 Integral computing path is                   2
 max size of driver memory is            800000
 size of driver memory is                593474
 size of scratch memory is              2260544
 max col of scratch BK array               1296
 max len of scratch array in speh3          155
 max len of scratch index in speh4           18
 max int batch size is                      520
 min int batch size is                       52
 fixed nKL is                                52
 max L of basis functions is                  2
 order of int derivative is                   0
 number of shells is                        676
 number of basis is                        2360
 number of cartesian basis is              2360
 number of contracted shell pairs         37492
 number of primitive shell pairs         113378
 maxK2 (contraction) of shell pair           36
 max number of K2 of shell pair               1
 max number of CS2 of shell pair           7186
 max number of PS2 of shell pair          34338
 mem total for path MDJ                 1500920
 -------------------------------------------------------
 Smallest overlap matrix eigenvalue = 2.56E-04

 Scale SEOQF with 1.000000e-02/1.000000e-02/1.000000e-02

 Standard Electronic Orientation quadrupole field applied
 Nucleus-field energy     =     0.0000000889 hartrees
 Guess from superposition of atomic densities
 Warning:  Energy on first SCF cycle will be non-variational
 A restricted hybrid HF-DFT SCF calculation will be
 performed using Pulay DIIS extrapolation
 Exchange:     0.2000 Hartree-Fock + 0.0800 Slater + 0.7200 B88
 Correlation:  0.1900 VWN1RPA + 0.8100 LYP
 Using SG-1 standard quadrature grid
 SCF converges when DIIS error is below 1.0E-05
 using 16 threads for integral computing 
 -------------------------------------------------------
 OpenMP BLAS3 based DFT computing Module                
 Release: version 1.0, May 2013, Q-Chem Inc. Pittsburgh 
 -------------------------------------------------------
 ---------------------------------------
  Cycle       Energy         DIIS Error
 ---------------------------------------
    1   -5857.4072845393      1.81E-02
    2   -5803.1368929317      1.29E-03
    3   -5802.3696170269      1.77E-03
    4   -5803.9974756561      6.24E-04
    5   -5804.2107447334      2.91E-04
    6   -5804.2664483237      1.25E-04
    7   -5804.2766077060      4.65E-05
    8   -5804.2774127242      3.23E-05
    9   -5804.2782418249      8.40E-06 Convergence criterion met
 ---------------------------------------
 SCF time:  CPU 8193.20 s  wall 841.00 s
 SCF   energy in the final basis set = -5804.2782418249
 Total energy in the final basis set = -5804.2782418249
 
 --------------------------------------------------------------
 
                    Orbital Energies (a.u.)
 --------------------------------------------------------------
 
 Alpha MOs
 -- Occupied --
-19.200 -19.182 -19.154 -19.133 -10.332 -10.316 -10.250 -10.245
-10.244 -10.242 -10.242 -10.239 -10.238 -10.234 -10.232 -10.232
-10.229 -10.229 -10.228 -10.226 -10.226 -10.225 -10.223 -10.223
-10.223 -10.222 -10.222 -10.222 -10.222 -10.221 -10.221 -10.221
-10.221 -10.221 -10.221 -10.221 -10.220 -10.220 -10.220 -10.220
-10.220 -10.219 -10.219 -10.219 -10.219 -10.219 -10.218 -10.218
-10.218 -10.218 -10.217 -10.217 -10.217 -10.216 -10.216 -10.216
-10.216 -10.216 -10.216 -10.216 -10.216 -10.216 -10.216 -10.215
-10.215 -10.215 -10.215 -10.215 -10.215 -10.215 -10.215 -10.215
-10.215 -10.214 -10.214 -10.214 -10.214 -10.214 -10.214 -10.214
-10.213 -10.213 -10.213 -10.213 -10.213 -10.213 -10.213 -10.213
-10.213 -10.213 -10.213 -10.213 -10.213 -10.213 -10.213 -10.213
-10.212 -10.212 -10.212 -10.212 -10.212 -10.211 -10.211 -10.211
-10.211 -10.211 -10.211 -10.211 -10.211 -10.211 -10.211 -10.211
-10.210 -10.210 -10.210 -10.210 -10.210 -10.210 -10.210 -10.209
-10.209 -10.209 -10.209 -10.209 -10.208 -10.208 -10.208 -10.208
-10.207 -10.207 -10.207 -10.206 -10.205 -10.205 -10.202 -10.202
-10.202 -10.201 -10.201 -10.200 -10.199 -10.194 -10.192 -10.190
-10.187 -10.186 -10.183 -10.182  -1.091  -1.086  -1.025  -0.997
 -0.980  -0.978  -0.964  -0.960  -0.959  -0.958  -0.956  -0.956
 -0.935  -0.927  -0.924  -0.923  -0.922  -0.922  -0.919  -0.917
 -0.917  -0.917  -0.893  -0.893  -0.888  -0.886  -0.884  -0.879
 -0.873  -0.866  -0.853  -0.849  -0.840  -0.839  -0.837  -0.836
 -0.833  -0.832  -0.825  -0.815  -0.808  -0.801  -0.797  -0.795
 -0.794  -0.792  -0.791  -0.790  -0.790  -0.787  -0.780  -0.779
 -0.771  -0.768  -0.766  -0.765  -0.765  -0.764  -0.760  -0.758
 -0.753  -0.745  -0.743  -0.736  -0.733  -0.728  -0.717  -0.714
 -0.713  -0.711  -0.711  -0.709  -0.708  -0.707  -0.707  -0.705
 -0.705  -0.704  -0.703  -0.702  -0.701  -0.700  -0.672  -0.668
 -0.658  -0.656  -0.655  -0.651  -0.647  -0.643  -0.632  -0.628
 -0.626  -0.625  -0.622  -0.622  -0.620  -0.619  -0.617  -0.614
 -0.613  -0.613  -0.611  -0.610  -0.610  -0.609  -0.607  -0.605
 -0.604  -0.601  -0.600  -0.598  -0.565  -0.563  -0.562  -0.559
 -0.557  -0.557  -0.555  -0.555  -0.555  -0.553  -0.552  -0.549
 -0.538  -0.533  -0.531  -0.528  -0.528  -0.525  -0.524  -0.524
 -0.523  -0.522  -0.519  -0.515  -0.513  -0.512  -0.511  -0.511
 -0.508  -0.502  -0.501  -0.501  -0.496  -0.488  -0.488  -0.484
 -0.481  -0.481  -0.480  -0.478  -0.477  -0.476  -0.474  -0.473
 -0.471  -0.470  -0.468  -0.468  -0.466  -0.465  -0.465  -0.464
 -0.463  -0.462  -0.461  -0.460  -0.459  -0.459  -0.457  -0.456
 -0.454  -0.452  -0.452  -0.448  -0.445  -0.445  -0.444  -0.441
 -0.439  -0.439  -0.437  -0.437  -0.436  -0.435  -0.434  -0.434
 -0.431  -0.429  -0.428  -0.427  -0.425  -0.424  -0.422  -0.422
 -0.421  -0.420  -0.420  -0.419  -0.419  -0.417  -0.417  -0.416
 -0.415  -0.414  -0.414  -0.413  -0.413  -0.413  -0.412  -0.411
 -0.411  -0.408  -0.407  -0.406  -0.403  -0.399  -0.397  -0.395
 -0.394  -0.392  -0.392  -0.391  -0.388  -0.385  -0.385  -0.385
 -0.378  -0.376  -0.372  -0.372  -0.372  -0.365  -0.363  -0.363
 -0.361  -0.361  -0.360  -0.359  -0.358  -0.358  -0.357  -0.357
 -0.356  -0.355  -0.354  -0.353  -0.352  -0.351  -0.350  -0.349
 -0.349  -0.349  -0.348  -0.347  -0.343  -0.343  -0.342  -0.340
 -0.340  -0.339  -0.339  -0.338  -0.338  -0.336  -0.334  -0.332
 -0.331  -0.330  -0.329  -0.328  -0.326  -0.325  -0.323  -0.321
 -0.309  -0.304  -0.297  -0.293  -0.287  -0.286  -0.277  -0.271
 -0.269  -0.268  -0.266  -0.266  -0.265  -0.264  -0.263  -0.262
 -0.262  -0.260  -0.259  -0.259  -0.256  -0.256  -0.253  -0.251
 -0.250  -0.248  -0.242  -0.238  -0.221  -0.218  -0.214  -0.209
 -0.208  -0.207  -0.206  -0.202  -0.200  -0.195
 -- Virtual --
 -0.125  -0.121  -0.121  -0.118  -0.109  -0.103  -0.076  -0.076
 -0.075  -0.073  -0.061  -0.055  -0.053  -0.051  -0.026  -0.022
 -0.020  -0.019  -0.018  -0.017  -0.016  -0.015  -0.013  -0.012
 -0.011  -0.009  -0.008  -0.007  -0.004  -0.003  -0.002   0.001
  0.006   0.007   0.033   0.037   0.039   0.041   0.044   0.046
  0.046   0.052   0.054   0.056   0.060   0.062   0.065   0.065
  0.066   0.069   0.073   0.081   0.082   0.084   0.089   0.091
  0.091   0.092   0.096   0.096   0.099   0.099   0.101   0.105
  0.108   0.109   0.111   0.112   0.113   0.114   0.117   0.120
  0.120   0.122   0.125   0.128   0.128   0.131   0.135   0.139
  0.141   0.142   0.143   0.147   0.150   0.151   0.152   0.156
  0.156   0.158   0.159   0.164   0.165   0.167   0.167   0.169
  0.171   0.172   0.173   0.176   0.177   0.178   0.179   0.182
  0.184   0.184   0.186   0.186   0.187   0.189   0.192   0.192
  0.194   0.196   0.196   0.198   0.201   0.203   0.203   0.204
  0.206   0.208   0.210   0.212   0.213   0.216   0.217   0.218
  0.219   0.220   0.221   0.223   0.225   0.226   0.226   0.227
  0.228   0.230   0.232   0.233   0.235   0.236   0.237   0.238
  0.241   0.244   0.244   0.248   0.249   0.249   0.256   0.257
  0.262   0.266   0.269   0.272   0.274   0.275   0.277   0.277
  0.281   0.282   0.285   0.291   0.295   0.299   0.302   0.305
  0.306   0.309   0.310   0.311   0.312   0.315   0.316   0.317
  0.320   0.320   0.322   0.325   0.325   0.326   0.327   0.329
  0.330   0.335   0.335   0.340   0.343   0.345   0.346   0.348
  0.350   0.354   0.355   0.356   0.364   0.367   0.383   0.385
  0.385   0.389   0.392   0.396   0.398   0.401   0.402   0.403
  0.405   0.407   0.409   0.411   0.414   0.417   0.418   0.419
  0.424   0.428   0.431   0.432   0.433   0.438   0.441   0.444
  0.446   0.449   0.451   0.452   0.455   0.457   0.462   0.465
  0.466   0.468   0.469   0.470   0.472   0.473   0.474   0.475
  0.478   0.478   0.480   0.480   0.483   0.483   0.484   0.485
  0.486   0.488   0.489   0.490   0.492   0.492   0.493   0.494
  0.495   0.496   0.497   0.499   0.500   0.501   0.502   0.503
  0.504   0.507   0.507   0.509   0.510   0.511   0.512   0.513
  0.514   0.514   0.515   0.515   0.516   0.516   0.517   0.518
  0.519   0.520   0.520   0.521   0.522   0.523   0.524   0.524
  0.526   0.527   0.528   0.529   0.529   0.529   0.531   0.532
  0.533   0.534   0.535   0.536   0.536   0.537   0.538   0.539
  0.539   0.540   0.541   0.542   0.542   0.543   0.544   0.544
  0.545   0.546   0.547   0.548   0.549   0.550   0.550   0.551
  0.552   0.552   0.554   0.554   0.555   0.556   0.556   0.557
  0.558   0.558   0.558   0.559   0.559   0.561   0.562   0.562
  0.564   0.564   0.565   0.567   0.567   0.568   0.568   0.570
  0.571   0.571   0.572   0.573   0.575   0.575   0.576   0.577
  0.578   0.579   0.579   0.580   0.581   0.582   0.583   0.584
  0.585   0.586   0.586   0.587   0.588   0.589   0.590   0.591
  0.593   0.593   0.594   0.595   0.595   0.598   0.599   0.599
  0.599   0.600   0.601   0.602   0.603   0.605   0.605   0.607
  0.609   0.609   0.610   0.611   0.613   0.614   0.615   0.616
  0.618   0.619   0.620   0.620   0.622   0.622   0.624   0.624
  0.627   0.628   0.629   0.630   0.631   0.631   0.632   0.633
  0.634   0.635   0.636   0.637   0.637   0.638   0.639   0.640
  0.641   0.642   0.643   0.644   0.645   0.647   0.647   0.648
  0.650   0.651   0.652   0.652   0.654   0.655   0.656   0.658
  0.658   0.659   0.660   0.660   0.662   0.662   0.663   0.663
  0.665   0.665   0.666   0.667   0.668   0.668   0.670   0.670
  0.671   0.672   0.673   0.674   0.674   0.675   0.676   0.677
  0.677   0.678   0.681   0.683   0.683   0.685   0.685   0.687
  0.689   0.690   0.692   0.692   0.693   0.694   0.695   0.695
  0.697   0.698   0.699   0.700   0.700   0.702   0.702   0.703
  0.704   0.705   0.706   0.707   0.710   0.711   0.712   0.713
  0.716   0.719   0.720   0.720   0.721   0.722   0.723   0.724
  0.725   0.726   0.727   0.728   0.731   0.731   0.732   0.733
  0.734   0.736   0.737   0.739   0.740   0.741   0.743   0.743
  0.747   0.748   0.748   0.750   0.754   0.755   0.756   0.757
  0.759   0.760   0.761   0.762   0.763   0.764   0.766   0.766
  0.768   0.769   0.770   0.773   0.773   0.775   0.776   0.777
  0.778   0.778   0.780   0.782   0.783   0.783   0.786   0.787
  0.788   0.790   0.790   0.791   0.793   0.795   0.795   0.797
  0.798   0.799   0.800   0.802   0.803   0.805   0.806   0.807
  0.808   0.808   0.809   0.810   0.811   0.812   0.813   0.813
  0.814   0.814   0.816   0.817   0.817   0.818   0.820   0.820
  0.821   0.823   0.823   0.825   0.825   0.826   0.827   0.828
  0.828   0.830   0.830   0.831   0.832   0.833   0.835   0.836
  0.837   0.838   0.839   0.841   0.843   0.844   0.844   0.846
  0.851   0.852   0.855   0.858   0.859   0.861   0.866   0.868
  0.870   0.872   0.874   0.876   0.880   0.885   0.886   0.889
  0.891   0.892   0.894   0.897   0.900   0.903   0.905   0.906
  0.908   0.911   0.915   0.917   0.920   0.922   0.923   0.924
  0.925   0.927   0.930   0.932   0.934   0.935   0.936   0.936
  0.938   0.939   0.940   0.942   0.944   0.944   0.945   0.949
  0.952   0.957   0.958   0.961   0.964   0.966   0.968   0.974
  0.975   0.978   0.980   0.984   0.984   0.987   0.987   0.990
  0.995   0.996   0.999   1.002   1.003   1.006   1.006   1.008
  1.010   1.011   1.011   1.013   1.016   1.017   1.019   1.021
  1.023   1.024   1.025   1.027   1.028   1.030   1.031   1.032
  1.033   1.035   1.036   1.037   1.040   1.042   1.045   1.045
  1.047   1.049   1.052   1.052   1.053   1.057   1.057   1.059
  1.059   1.062   1.063   1.065   1.065   1.068   1.068   1.068
  1.072   1.074   1.076   1.078   1.080   1.081   1.082   1.082
  1.085   1.086   1.088   1.091   1.092   1.093   1.094   1.097
  1.097   1.100   1.101   1.103   1.105   1.109   1.111   1.114
  1.115   1.115   1.116   1.118   1.121   1.124   1.125   1.128
  1.129   1.133   1.135   1.138   1.139   1.141   1.143   1.146
  1.146   1.148   1.150   1.150   1.152   1.153   1.156   1.157
  1.159   1.161   1.162   1.166   1.167   1.169   1.170   1.171
  1.172   1.174   1.176   1.178   1.179   1.180   1.180   1.184
  1.186   1.187   1.188   1.189   1.191   1.194   1.194   1.197
  1.200   1.202   1.204   1.206   1.209   1.210   1.211   1.214
  1.215   1.217   1.224   1.228   1.232   1.233   1.234   1.236
  1.241   1.244   1.248   1.251   1.251   1.253   1.256   1.259
  1.260   1.262   1.263   1.265   1.268   1.268   1.271   1.273
  1.273   1.275   1.278   1.279   1.281   1.285   1.286   1.287
  1.289   1.293   1.294   1.295   1.297   1.299   1.306   1.309
  1.309   1.315   1.318   1.319   1.321   1.322   1.327   1.331
  1.332   1.334   1.336   1.337   1.338   1.340   1.343   1.346
  1.347   1.349   1.352   1.353   1.357   1.359   1.362   1.365
  1.368   1.370   1.374   1.377   1.378   1.378   1.381   1.384
  1.388   1.394   1.394   1.397   1.399   1.400   1.404   1.407
  1.410   1.412   1.414   1.416   1.418   1.422   1.423   1.425
  1.428   1.430   1.432   1.436   1.438   1.438   1.447   1.448
  1.450   1.451   1.452   1.453   1.454   1.458   1.460   1.461
  1.462   1.465   1.467   1.470   1.471   1.472   1.474   1.475
  1.476   1.480   1.483   1.489   1.490   1.492   1.493   1.495
  1.496   1.499   1.501   1.506   1.508   1.512   1.514   1.517
  1.519   1.521   1.524   1.527   1.528   1.532   1.534   1.536
  1.539   1.539   1.541   1.542   1.546   1.548   1.552   1.555
  1.556   1.558   1.560   1.563   1.564   1.566   1.568   1.569
  1.572   1.575   1.578   1.579   1.581   1.584   1.586   1.590
  1.591   1.594   1.597   1.598   1.605   1.608   1.611   1.617
  1.619   1.624   1.628   1.629   1.630   1.635   1.636   1.640
  1.646   1.646   1.648   1.653   1.661   1.664   1.668   1.676
  1.679   1.683   1.684   1.685   1.689   1.690   1.692   1.695
  1.697   1.701   1.703   1.704   1.707   1.709   1.712   1.712
  1.716   1.717   1.719   1.721   1.723   1.725   1.726   1.728
  1.729   1.732   1.734   1.736   1.737   1.739   1.740   1.742
  1.743   1.745   1.746   1.748   1.749   1.752   1.753   1.754
  1.754   1.758   1.759   1.760   1.761   1.762   1.763   1.765
  1.767   1.769   1.770   1.772   1.774   1.775   1.776   1.777
  1.779   1.780   1.780   1.781   1.782   1.783   1.784   1.786
  1.786   1.787   1.789   1.790   1.792   1.793   1.795   1.795
  1.797   1.798   1.799   1.801   1.802   1.802   1.804   1.805
  1.806   1.807   1.808   1.809   1.811   1.814   1.816   1.817
  1.819   1.820   1.824   1.826   1.827   1.830   1.834   1.835
  1.841   1.841   1.842   1.845   1.847   1.848   1.849   1.852
  1.853   1.855   1.857   1.859   1.861   1.861   1.864   1.867
  1.868   1.868   1.870   1.871   1.873   1.876   1.877   1.880
  1.882   1.882   1.885   1.891   1.893   1.895   1.897   1.900
  1.901   1.905   1.908   1.910   1.913   1.914   1.915   1.917
  1.917   1.921   1.925   1.928   1.929   1.931   1.932   1.933
  1.935   1.937   1.939   1.941   1.943   1.944   1.947   1.950
  1.953   1.956   1.956   1.957   1.958   1.962   1.964   1.966
  1.968   1.971   1.972   1.974   1.977   1.978   1.978   1.982
  1.983   1.986   1.988   1.990   1.990   1.993   1.993   1.995
  1.996   1.996   1.998   2.001   2.001   2.002   2.003   2.005
  2.007   2.008   2.010   2.011   2.012   2.013   2.013   2.015
  2.016   2.017   2.018   2.019   2.020   2.022   2.023   2.024
  2.025   2.027   2.027   2.028   2.029   2.030   2.031   2.033
  2.034   2.035   2.036   2.037   2.038   2.040   2.041   2.042
  2.044   2.045   2.047   2.048   2.048   2.050   2.051   2.052
  2.054   2.056   2.057   2.058   2.060   2.061   2.062   2.063
  2.065   2.066   2.067   2.069   2.071   2.072   2.074   2.075
  2.077   2.078   2.079   2.081   2.082   2.084   2.086   2.087
  2.088   2.089   2.091   2.094   2.099   2.100   2.101   2.103
  2.105   2.108   2.109   2.112   2.113   2.115   2.116   2.118
  2.120   2.126   2.128   2.131   2.133   2.136   2.137   2.139
  2.143   2.145   2.146   2.148   2.150   2.155   2.160   2.163
  2.166   2.170   2.170   2.181   2.184   2.191   2.194   2.195
  2.199   2.203   2.205   2.205   2.208   2.212   2.215   2.218
  2.220   2.226   2.226   2.228   2.230   2.233   2.235   2.237
  2.241   2.242   2.244   2.248   2.251   2.254   2.258   2.260
  2.262   2.262   2.268   2.269   2.271   2.273   2.275   2.276
  2.279   2.281   2.283   2.284   2.285   2.289   2.290   2.291
  2.293   2.296   2.297   2.301   2.302   2.305   2.305   2.310
  2.313   2.313   2.317   2.320   2.321   2.323   2.329   2.331
  2.334   2.335   2.335   2.337   2.341   2.344   2.346   2.348
  2.351   2.352   2.355   2.356   2.358   2.361   2.362   2.364
  2.367   2.369   2.370   2.371   2.373   2.374   2.376   2.377
  2.378   2.379   2.384   2.385   2.385   2.389   2.390   2.392
  2.394   2.395   2.397   2.397   2.398   2.399   2.402   2.404
  2.405   2.407   2.410   2.411   2.413   2.415   2.417   2.420
  2.422   2.424   2.427   2.433   2.434   2.437   2.442   2.443
  2.443   2.446   2.447   2.450   2.452   2.453   2.455   2.461
  2.462   2.465   2.466   2.468   2.469   2.472   2.473   2.474
  2.475   2.477   2.479   2.482   2.485   2.486   2.487   2.488
  2.490   2.492   2.493   2.496   2.498   2.500   2.501   2.503
  2.505   2.505   2.507   2.509   2.512   2.513   2.514   2.517
  2.519   2.521   2.522   2.526   2.529   2.530   2.533   2.534
  2.535   2.543   2.543   2.546   2.549   2.551   2.556   2.563
  2.564   2.566   2.569   2.570   2.573   2.577   2.579   2.581
  2.581   2.587   2.588   2.593   2.594   2.599   2.599   2.601
  2.603   2.605   2.608   2.610   2.611   2.613   2.614   2.618
  2.619   2.621   2.622   2.623   2.626   2.628   2.628   2.631
  2.632   2.634   2.636   2.637   2.637   2.639   2.641   2.643
  2.644   2.646   2.648   2.649   2.652   2.653   2.656   2.658
  2.659   2.659   2.661   2.661   2.663   2.664   2.667   2.668
  2.671   2.672   2.673   2.675   2.676   2.678   2.680   2.684
  2.686   2.689   2.691   2.692   2.695   2.698   2.700   2.701
  2.704   2.708   2.710   2.711   2.714   2.714   2.716   2.718
  2.722   2.724   2.727   2.732   2.734   2.735   2.737   2.739
  2.740   2.743   2.744   2.747   2.750   2.750   2.754   2.755
  2.757   2.758   2.761   2.762   2.764   2.767   2.768   2.770
  2.771   2.774   2.778   2.780   2.784   2.785   2.787   2.791
  2.794   2.798   2.799   2.804   2.806   2.810   2.813   2.814
  2.816   2.818   2.821   2.823   2.827   2.829   2.832   2.837
  2.839   2.840   2.841   2.844   2.847   2.852   2.855   2.856
  2.859   2.860   2.862   2.863   2.866   2.868   2.872   2.872
  2.874   2.876   2.876   2.878   2.880   2.882   2.886   2.887
  2.889   2.890   2.893   2.893   2.894   2.895   2.898   2.901
  2.902   2.905   2.906   2.908   2.911   2.913   2.913   2.914
  2.915   2.919   2.921   2.921   2.922   2.925   2.928   2.931
  2.934   2.935   2.935   2.940   2.941   2.944   2.945   2.948
  2.950   2.954   2.955   2.960   2.961   2.964   2.966   2.970
  2.978   2.981   2.983   2.984   2.990   2.992   2.996   2.998
  2.999   3.005   3.005   3.008   3.011   3.012   3.013   3.015
  3.017   3.020   3.024   3.028   3.029   3.030   3.033   3.037
  3.040   3.042   3.045   3.048   3.050   3.053   3.054   3.061
  3.062   3.064   3.067   3.069   3.087   3.093   3.097   3.100
  3.103   3.110   3.113   3.124   3.129   3.131   3.134   3.136
  3.141   3.146   3.152   3.155   3.156   3.160   3.167   3.177
  3.178   3.181   3.183   3.196   3.212   3.222   3.223   3.225
  3.228   3.235   3.247   3.249   3.258   3.262   3.266   3.273
  3.277   3.298   3.299   3.308   3.309   3.312   3.320   3.322
  3.326   3.329   3.339   3.346   3.346   3.363   3.384   3.390
  3.401   3.406   3.411   3.426   3.427   3.429   3.430   3.433
  3.438   3.445   3.446   3.453   3.461   3.471   3.474   3.479
  3.493   3.496   3.504   3.506   3.517   3.519   3.522   3.534
  3.534   3.544   3.547   3.557   3.570   3.579   3.583   3.588
  3.604   3.612   3.664   3.679   3.839   3.878   3.947   4.018
  4.063   4.065   4.074   4.082   4.083   4.086   4.090   4.092
  4.093   4.097   4.102   4.103   4.110   4.112   4.113   4.116
  4.120   4.121   4.126   4.129   4.139   4.142   4.149   4.153
  4.156   4.159   4.161   4.165   4.168   4.170   4.172   4.174
  4.175   4.182   4.186   4.195   4.210   4.212   4.227   4.234
  4.238   4.242   4.246   4.249   4.250   4.258   4.260   4.262
  4.266   4.273   4.278   4.279   4.285   4.286   4.289   4.294
  4.300   4.305   4.317   4.332   4.367   4.378   4.385   4.387
  4.393   4.395   4.400   4.403   4.406   4.409   4.413   4.415
  4.416   4.420   4.422   4.429   4.445   4.449   4.452   4.459
  4.475   4.477   4.505   4.510   4.527   4.533   4.542   4.549
  4.550   4.557   4.601   4.613   4.618   4.620   4.624   4.629
  4.632   4.644   4.656   4.683   4.689   4.692   4.693   4.696
  4.698   4.703   4.704   4.705   4.712   4.780   4.794   4.810
  4.838   4.843   4.846   4.848   4.868   4.871   4.880   4.887
  4.890   4.893   4.945   4.954   4.957   4.962   4.967   4.970
  4.975   4.978   4.983   4.986   5.147   5.158   5.161   5.170
  5.182   5.186   5.208   5.212   5.287   5.314   5.325   5.332
  5.343   5.363
 --------------------------------------------------------------
 
          Ground-State Mulliken Net Atomic Charges

     Atom                 Charge (a.u.)
  ----------------------------------------
      1 O                    -0.479759
      2 C                    -0.091103
      3 H                     0.136818
      4 H                     0.127022
      5 H                     0.124201
      6 O                    -0.443058
      7 C                     0.603069
      8 C                    -0.262988
      9 H                     0.130948
     10 H                     0.128326
     11 C                    -0.182605
     12 H                     0.107064
     13 H                     0.126456
     14 C                    -0.185006
     15 H                     0.126917
     16 H                     0.104056
     17 C                     0.010427
     18 C                     0.051801
     19 C                    -0.109704
     20 H                     0.081144
     21 C                    -0.071959
     22 H                     0.083220
     23 C                    -0.087241
     24 H                     0.086959
     25 C                    -0.094217
     26 H                     0.090907
     27 C                    -0.094920
     28 H                     0.106953
     29 C                    -0.022609
     30 C                     0.018770
     31 C                    -0.011590
     32 C                    -0.003484
     33 C                    -0.040841
     34 C                     0.003318
     35 C                    -0.013259
     36 C                     0.021708
     37 C                     0.003446
     38 C                    -0.012064
     39 C                    -0.087830
     40 C                    -0.017391
     41 C                     0.006700
     42 C                     0.019375
     43 C                    -0.029124
     44 C                    -0.004384
     45 C                    -0.092346
     46 C                     0.001663
     47 C                     0.017278
     48 C                    -0.012146
     49 C                    -0.008581
     50 C                    -0.013283
     51 C                    -0.000582
     52 C                     0.018458
     53 C                     0.055986
     54 C                    -0.019858
     55 C                    -0.020799
     56 C                     0.008429
     57 C                    -0.009449
     58 C                    -0.013657
     59 C                     0.004250
     60 C                     0.041958
     61 C                     0.025753
     62 C                     0.009024
     63 C                     0.005984
     64 C                    -0.010253
     65 C                     0.011297
     66 C                     0.029470
     67 C                     0.007768
     68 C                    -0.024570
     69 C                    -0.016595
     70 C                     0.062123
     71 C                    -0.001739
     72 C                     0.010249
     73 C                    -0.016286
     74 C                    -0.007957
     75 C                     0.008774
     76 C                    -0.009929
     77 C                    -0.001584
     78 C                     0.005337
     79 C                    -0.027816
     80 C                    -0.007469
     81 C                     0.016556
     82 C                     0.025279
     83 C                    -0.010758
     84 C                     0.026147
     85 C                     0.007624
     86 C                    -0.015644
     87 C                    -0.018735
     88 C                     0.000134
     89 O                    -0.477325
     90 C                    -0.077959
     91 H                     0.127889
     92 H                     0.119823
     93 H                     0.126024
     94 O                    -0.474675
     95 C                     0.604228
     96 C                    -0.269354
     97 H                     0.134806
     98 H                     0.140017
     99 C                    -0.178130
    100 H                     0.120999
    101 H                     0.121463
    102 C                    -0.196869
    103 H                     0.099572
    104 H                     0.097864
    105 C                     0.041247
    106 C                     0.077806
    107 C                    -0.118547
    108 H                     0.099493
    109 C                    -0.091934
    110 H                     0.104493
    111 C                    -0.091865
    112 H                     0.090021
    113 C                    -0.086686
    114 H                     0.096163
    115 C                    -0.094390
    116 H                     0.093801
    117 C                     0.001172
    118 C                     0.006121
    119 C                    -0.018367
    120 C                    -0.003883
    121 C                    -0.006082
    122 C                    -0.007211
    123 C                    -0.009614
    124 C                    -0.025337
    125 C                     0.019652
    126 C                    -0.022669
    127 C                    -0.096884
    128 C                     0.007720
    129 C                     0.017183
    130 C                    -0.028303
    131 C                     0.000276
    132 C                    -0.012860
    133 C                    -0.090444
    134 C                    -0.008014
    135 C                    -0.006475
    136 C                    -0.035638
    137 C                     0.013073
    138 C                     0.011444
    139 C                     0.007258
    140 C                     0.028227
    141 C                     0.034349
    142 C                    -0.005468
    143 C                     0.018668
    144 C                     0.013650
    145 C                    -0.004405
    146 C                    -0.008852
    147 C                     0.004413
    148 C                     0.032357
    149 C                    -0.012637
    150 C                     0.001496
    151 C                    -0.018660
    152 C                     0.037068
    153 C                    -0.011205
    154 C                     0.017180
    155 C                    -0.000469
    156 C                    -0.017784
    157 C                     0.008765
    158 C                     0.035371
    159 C                     0.000035
    160 C                    -0.000018
    161 C                    -0.033646
    162 C                    -0.017252
    163 C                    -0.010547
    164 C                    -0.000441
    165 C                     0.028653
    166 C                    -0.002642
    167 C                     0.038871
    168 C                    -0.020061
    169 C                     0.003710
    170 C                    -0.025275
    171 C                    -0.010128
    172 C                     0.002710
    173 C                    -0.003474
    174 C                     0.015539
    175 C                     0.021458
    176 C                     0.016382
  ----------------------------------------
  Sum of atomic charges =     0.000000

 -----------------------------------------------------------------
                    Cartesian Multipole Moments
 -----------------------------------------------------------------
    Charge (ESU x 10^10)
                 0.0000
    Dipole Moment (Debye)
         X      -1.6087      Y      -0.3964      Z      -2.7472
       Tot       3.2081
    Quadrupole Moments (Debye-Ang)
        XX    -829.0677     XY     -29.8040     YY    -769.8238
        XZ     -10.2121     YZ       5.4494     ZZ    -794.2933
    Octopole Moments (Debye-Ang^2)
       XXX    -239.4104    XXY     191.6791    XYY    -240.7540
       YYY    -160.1055    XXZ       4.4892    XYZ      53.1641
       YYZ    -167.3781    XZZ     -44.8065    YZZ     -26.4797
       ZZZ    -309.7926
    Hexadecapole Moments (Debye-Ang^3)
      XXXX -146145.7252   XXXY   -4228.1373   XXYY  -28767.2492
      XYYY   -1919.5095   YYYY  -36155.9107   XXXZ    -846.1874
      XXYZ    -145.0365   XYYZ     455.3159   YYYZ     470.3895
      XXZZ  -29373.2205   XYZZ    -715.5013   YYZZ  -11272.3174
      XZZZ     479.0105   YZZZ     149.6277   ZZZZ  -30508.9706
 -----------------------------------------------------------------
Archival summary:
1\1\mn251\SP\ProcedureUnspecified\6-31G**\428\afmv_a\FriOct1217:01:012018FriOct1217:01:012018\0\\#,ProcedureUnspecified,6-31G**,\\0,1\C\C,1,1.38411\C,2,1.38413,1,107.031\C,3,1.39521,2,111.278,1,1.82525,0\C,4,1.37966,3,104.188,2,-4.53325,0\C,2,1.40812,1,122.254,3,-146.016,0\C,6,1.39548,2,119.485,1,139.811,0\C,3,1.41404,2,122.758,1,-150.317,0\C,4,1.42209,3,120.431,2,-141.034,0\C,9,1.35216,4,119.705,3,141.595,0\C,9,1.4073,4,119.979,3,-10.3909,0\C,11,1.38291,9,103.218,4,148.783,0\C,10,1.41601,9,122.482,4,-13.4829,0\C,13,1.39105,10,116.858,9,6.88888,0\C,14,1.39971,13,110.566,10,-143.541,0\C,15,1.3965,14,109.503,13,1.5095,0\C,16,1.39804,15,121.149,14,139.839,0\C,17,1.36958,16,120.564,15,-135.127,0\C,18,1.38576,17,109.531,16,148.748,0\C,19,1.38976,18,106.472,17,-1.92365,0\C,15,1.40237,14,123.217,13,149.3,0\C,17,1.41308,16,119.787,15,6.8281,0\C,18,1.41495,17,117.956,16,5.25661,0\C,23,1.39102,18,123.747,17,-15.2085,0\C,24,1.40475,23,115.313,18,17.7146,0\C,22,1.41983,17,120.278,16,-0.778384,0\C,26,1.38811,22,118.735,17,-138.379,0\C,12,1.42191,11,114.034,9,-137.702,0\C,28,1.39738,12,120.587,11,144.236,0\C,6,1.42269,2,118.909,1,7.81924,0\C,30,1.40197,6,108.04,2,136.323,0\C,31,1.36906,30,109.818,6,2.72108,0\C,32,1.40032,31,119.831,30,-144.206,0\C,30,1.40233,6,119.949,2,-7.24526,0\C,34,1.39026,30,118.729,6,4.90608,0\C,33,1.40671,32,118.241,31,-1.4832,0\C,36,1.34818,33,123.893,32,-4.37055,0\C,31,1.41543,30,118.921,6,-143.597,0\C,38,1.33101,31,122.852,30,-2.65444,0\C,39,1.41725,38,106.86,31,141.154,0\C,40,1.39425,39,108.327,38,12.1889,0\C,33,1.41975,32,122.028,31,136.231,0\C,42,1.40637,33,118.42,32,-3.95426,0\C,7,1.42277,6,119.608,2,1.88359,0\C,8,1.42489,3,119.825,2,140.292,0\C,45,1.38573,8,108.26,3,-134.851,0\C,46,1.35969,45,119.812,8,139.661,0\C,47,1.39213,46,121.175,45,-142.97,0\C,48,1.40154,47,121.299,46,2.62107,0\C,49,1.40766,48,119.979,47,133.834,0\C,50,1.42648,49,118.713,48,6.16968,0\C,51,1.41276,50,118.332,49,-140.971,0\C,19,1.42726,18,119.815,17,-139.379,0\C,53,1.41704,19,119.78,18,-4.7839,0\C,54,1.36568,53,109.529,19,145.351,0\C,55,1.39246,54,117.403,53,-142.706,0\C,54,1.41399,53,120.339,19,1.18391,0\C,57,1.41609,54,125.449,53,147.491,0\C,10,1.47249,9,108.733,4,-153.402,0\C,24,1.47641,23,108.058,18,155.806,0\C,59,1.51472,10,126.41,9,-148.784,0\C,61,1.42169,59,119.19,10,149.329,0\H,62,1.09703,61,114.092,59,-76.7403,0\H,62,1.0979,61,111.547,59,38.5142,0\C,62,1.48984,61,119.005,59,162.979,0\H,65,1.09738,62,102.523,61,170.337,0\H,65,1.09739,62,107.422,61,54.3355,0\C,61,1.54297,59,120.414,10,1.19105,0\C,68,1.3983,61,117.306,59,58.1964,0\H,69,1.08478,68,113.524,61,-0.683707,0\C,69,1.391,68,120.188,61,-178.553,0\H,71,1.0858,69,117.492,68,-176.497,0\C,71,1.41011,69,118.877,68,-0.0239515,0\H,73,1.08511,71,115.711,69,173.762,0\C,73,1.40472,71,123.261,69,2.35128,0\H,75,1.08588,73,119.199,71,-169.006,0\C,75,1.42342,73,116.744,71,-5.99022,0\H,77,1.08692,75,119.767,73,-176.725,0\C,65,1.59316,62,113.705,61,-72.6474,0\H,79,1.09698,65,107.366,62,-62.6688,0\H,79,1.09743,65,110.138,62,52.2449,0\C,79,1.50302,65,106.915,62,177.11,0\O,82,1.2129,79,131.637,65,-140.644,0\O,82,1.3834,79,111.001,65,33.7677,0\C,84,1.46853,82,118.523,79,177.488,0\H,85,1.09658,84,110.733,82,-172.347,0\H,85,1.09689,84,107.578,82,-53.3828,0\H,85,1.09732,84,116.79,82,64.1221,0\H,15,2.75194,14,100.304,13,-122.211,0\C,89,1.08628,15,128.236,14,-40.8697,0\C,90,1.379,89,112.085,15,132.089,0\H,91,1.08606,90,123.921,89,1.32754,0\C,91,1.35584,90,120.463,89,169.267,0\H,93,1.0866,91,124.34,90,-169.941,0\C,93,1.38337,91,120.347,90,1.36171,0\H,95,1.08632,93,118.163,91,178.578,0\C,90,1.39178,89,124.046,15,-66.0258,0\H,97,1.08564,90,123.37,89,14.7067,0\C,95,1.42298,93,122.057,91,-2.7363,0\C,99,1.53567,95,122.738,93,-179.824,0\C,100,1.53799,99,110.453,95,102.338,0\H,101,1.09692,100,103.6,99,94.2246,0\H,101,1.09798,100,108.863,99,-152.397,0\C,100,1.54254,99,120.422,95,-115.504,0\C,104,1.47232,100,62.8342,99,104.296,0\C,104,1.4948,100,126.212,99,-3.34121,0\C,106,1.3932,104,109.037,100,-147.076,0\C,107,1.42217,106,122.613,104,-151.504,0\C,108,1.39135,107,120.711,106,1.39833,0\C,109,1.36854,108,108.472,107,144.032,0\C,108,1.40619,107,121.406,106,145.663,0\C,111,1.38113,108,120.738,107,0.655764,0\C,111,1.3971,108,106.687,107,-146.813,0\C,113,1.38853,111,117.869,108,138.373,0\C,114,1.39707,113,121.983,111,-133.693,0\C,115,1.40448,114,120.905,113,3.57084,0\C,116,1.36585,115,120.554,114,136.945,0\C,116,1.40568,115,118.766,114,-5.35791,0\C,109,1.40803,108,115.656,107,5.66153,0\C,119,1.40836,109,125.241,108,-7.85069,0\C,117,1.41548,116,106.443,115,-145.998,0\C,121,1.37942,117,109.373,116,1.49815,0\C,121,1.38566,117,117.01,116,144.843,0\C,123,1.40613,121,120.383,117,0.861834,0\C,124,1.39512,123,121.496,121,3.90772,0\C,125,1.37163,124,120.127,123,-4.92024,0\C,126,1.39268,125,107.834,124,-135.724,0\C,125,1.40216,124,116.558,123,-142.385,0\C,128,1.37854,125,105.689,124,135.675,0\C,122,1.41565,121,118.54,117,137.709,0\C,130,1.36561,122,121.729,121,6.15179,0\C,131,1.40841,130,118.979,122,-4.69311,0\C,131,1.41459,130,110.779,122,-147.453,0\C,133,1.39785,131,122.421,130,137.648,0\C,134,1.40906,133,119.203,131,-0.969155,0\C,135,1.38671,134,113.905,133,-142.633,0\C,136,1.41915,135,122.763,134,150.181,0\C,137,1.37268,136,122.457,135,-136.75,0\C,138,1.38582,137,110.162,136,137.641,0\C,139,1.41664,138,117.328,137,-139.227,0\C,140,1.39543,139,120.771,138,138.286,0\C,141,1.39694,140,111.676,139,-147.091,0\C,142,1.3564,141,106.486,140,3.15332,0\C,143,1.36426,142,120.666,141,138.856,0\C,144,1.40004,143,124.364,142,4.57078,0\C,145,1.40204,144,115.976,143,-10.5062,0\C,146,1.38597,145,120.241,144,8.59099,0\C,147,1.38287,146,109.478,145,-146.845,0\C,140,1.41427,139,124.103,138,-0.324738,0\C,149,1.41629,140,119.872,139,1.68849,0\C,150,1.38142,149,121.761,140,133.176,0\C,151,1.37099,150,118.029,149,4.8469,0\C,152,1.36859,151,118.871,150,-143.644,0\C,151,1.3739,150,110.28,149,-141.692,0\C,154,1.3978,151,107.277,150,1.22183,0\C,136,1.42306,135,107.423,134,-1.12895,0\C,155,1.42349,154,109.151,151,0.869571,0\C,124,1.42706,123,107.029,121,-145.198,0\C,158,1.40308,124,108.584,123,5.42206,0\C,158,1.43161,124,119.108,123,144.461,0\C,160,1.39456,158,118.574,124,4.6669,0\C,107,1.43763,106,109.941,104,-1.42563,0\C,162,1.37793,107,107.176,106,-5.29604,0\C,101,1.57083,100,123.104,99,-28.4753,0\H,164,1.09697,101,105.678,100,-90.6362,0\H,164,1.0971,101,111.325,100,29.1709,0\C,164,1.53652,101,112.564,100,147.278,0\H,167,1.09688,164,107.972,101,177.876,0\H,167,1.09754,164,102.329,101,62.188,0\C,167,1.56661,164,122.302,101,-60.8663,0\O,170,1.20488,167,119.907,164,-6.68519,0\O,170,1.40694,167,111.938,164,172.002,0\C,172,1.45793,170,115.258,167,161.709,0\H,173,1.09654,172,113.722,170,61.1093,0\H,173,1.09689,172,107.904,170,-63.6895,0\H,173,1.09745,172,113.563,170,-177.263,0\\\@

 Total job time:  856.82s(wall), 8219.44s(cpu) 
 Fri Oct 12 17:01:01 2018

        *************************************************************
        *                                                           *
        *  Thank you very much for using Q-Chem.  Have a nice day.  *
        *                                                           *
        *************************************************************


