
Running Job 1 of 1 ./9/5.qcin
qchem ./9/5.qcin_32424.0 /tmpu/cab_g/afmv_a/scratch_qchem/qchem32424/ 1
/tmpu/appuserlic/qchem4.4/serial-multicore/exe/qcprog.exe_s ./9/5.qcin_32424.0 /tmpu/cab_g/afmv_a/scratch_qchem/qchem32424/
Check license passed

                  Welcome to Q-Chem
     A Quantum Leap Into The Future Of Chemistry


 Q-Chem 4.4, Q-Chem, Inc., Pleasanton, CA (2016)

 Y. Shao,  Z. Gan,  E. Epifanovsky,  A. T. B. Gilbert,  M. Wormit,  
 J. Kussmann,  A. W. Lange,  A. Behn,  J. Deng,  X. Feng,  D. Ghosh,  
 M. Goldey,  P. R. Horn,  L. D. Jacobson,  I. Kaliman,  F. Rob,  
 R. Z. Khaliullin,  T. Kus,  A. Landau,  J. Liu,  E. I. Proynov,  Y. M. Rhee,  
 R. M. Richard,  M. A. Rohrdanz,  R. P. Steele,  E. J. Sundstrom,  
 H. L. Woodcock III,  P. M. Zimmerman,  D. Zuev,  B. Albrecht,  E. Alguire,  
 B. Austin,  S. A. Baeppler,  G. J. O. Beran,  Y. A. Bernard,  E. Berquist,  
 K. Brandhorst,  K. B. Bravaya,  S. T. Brown,  D. Casanova,  C.-M. Chang,  
 Y. Chen,  S. H. Chien,  K. D. Closser,  M. P. Coons,  D. L. Crittenden,  
 S. Dasgupta,  M. Diedenhofen,  R. A. DiStasio Jr.,  H. Do,  A. D. Dutoi,  
 R. G. Edgar,  P.-T. Fang,  S. Fatehi,  Q. Feng,  L. Fusti-Molnar,  
 A. Ghysels,  A. Golubeva-Zadorozhnaya,  J. Gomes,  A. Gunina,  
 M. W. D. Hanson-Heine,  P. H. P. Harbach,  A. W. Hauser,  J. E. Herr,  
 E. G. Hohenstein,  Z. C. Holden,  K. Hui,  T.-C. Jagau,  H. Ji,  B. Kaduk,  
 K. Khistyaev,  Jaehoon Kim,  Jihan Kim,  R. A. King,  P. Klunzinger,  
 K. Koh,  D. Kosenkov,  T. Kowalczyk,  C. M. Krauter,  A. Kunitsa,  
 K. U. Lao,  A. Laurent,  K. V. Lawler,  J. Lee,  D. Lefrancois,  S. Lehtola,  
 S. V. Levchenko,  C. Y. Lin,  Y.-S. Lin,  F. Liu,  E. Livshits,  
 R. C. Lochan,  A. Luenser,  P. Manohar,  S. F. Manzer,  S.-P. Mao,  Y. Mao,  
 N. Mardirossian,  A. V. Marenich,  L. A. Martinez-Martinez,  S. A. Maurer,  
 N. J. Mayhall,  J.-M. Mewes,  A. F. Morrison,  K. Nanda,  T. S. Nguyen-Beck,  
 C. M. Oana,  R. Olivares-Amaya,  D. P. O'Neill,  J. A. Parkhill,  
 T. M. Perrine,  R. Peverati,  P. A. Pieniazek,  F. Plasser,  A. Prociuk,  
 D. R. Rehn,  E. Rosta,  N. J. Russ,  N. Sergueev,  S. M. Sharada,  
 S. Sharma,  D. W. Small,  A. Sodt,  T. Stauch,  T. Stein,  D. Stuck,  
 Y.-C. Su,  A. J. W. Thom,  T. Tsuchimochi,  L. Vogt,  O. Vydrov,  T. Wang,  
 M. A. Watson,  J. Wenzel,  A. White,  C. F. Williams,  V. Vanovschi,  
 K. Yao,  S. Yeganeh,  S. R. Yost,  Z.-Q. You,  I. Y. Zhang,  X. Zhang,  
 Y. Zhao,  B. R. Brooks,  G. K. L. Chan,  D. M. Chipman,  C. J. Cramer,  
 W. A. Goddard III,  M. S. Gordon,  W. J. Hehre,  A. Klamt,  
 H. F. Schaefer III,  M. W. Schmidt,  C. D. Sherrill,  D. G. Truhlar,  
 A. Warshel,  X. Xu,  A. Aspuru-Guzik,  R. Baer,  A. T. Bell,  N. A. Besley,  
 J.-D. Chai,  A. Dreuw,  B. D. Dunietz,  T. R. Furlani,  S. R. Gwaltney,  
 C.-P. Hsu,  Y. Jung,  J. Kong,  D. S. Lambrecht,  W. Liang,  C. Ochsenfeld,  
 V. A. Rassolov,  L. V. Slipchenko,  J. E. Subotnik,  T. Van Voorhis,  
 J. M. Herbert,  A. I. Krylov,  P. M. W. Gill,  M. Head-Gordon

 Contributors to earlier versions of Q-Chem not listed above: 
 R. D. Adamson,  J. Baker,  E. F. C. Byrd,  A. K. Chakraborty,  C.-L. Cheng,  
 H. Dachsel,  R. J. Doerksen,  G. Hawkins,  A. Heyden,  S. Hirata,  
 G. Kedziora,  F. J. Keil,  C. Kelley,  P. P. Korambath,  W. Kurlancheek,  
 A. M. Lee,  M. S. Lee,  D. Liotard,  I. Lotan,  P. E. Maslen,  N. Nair,  
 D. Neuhauser,  R. Olson,  B. Peters,  J. Ritchie,  N. E. Schultz,  
 N. Shenvi,  A. C. Simmonett,  K. S. Thanthiriwatte,  Q. Wu,  W. Zhang

 Please cite Q-Chem as follows:
 Y. Shao et al., Mol. Phys. 113, 184-215 (2015)
 DOI: 10.1080/00268976.2014.952696

 Q-Chem 4.4.2 for Intel X86 Linux

 Parts of Q-Chem use Armadillo 5.200.1 (Boston Tea Smuggler).
 http://arma.sourceforge.net/

 Q-Chem begins on Fri Oct 12 17:15:23 2018  

Host: 
0

     Scratch files written to /tmpu/cab_g/afmv_a/scratch_qchem/qchem32424//
 Dec716 11556_ 22328  22283 4050   
Processing $rem in /tmpu/appuserlic/qchem4.4/serial-multicore/config/preferences.
 MEM_TOTAL  2000 
FILE_GEOM_ORG=        593

Checking the input file for inconsistencies... 	...done.

--------------------------------------------------------------
User input:
--------------------------------------------------------------
$comment
SP
$end

$rem
MEM_STATIC 5000
MEM_TOTAL 20000
JOBTYPE SP
EXCHANGE B3LYP
BASIS 6-31g(d,p)
$end

$molecule
0 1
O          21.234000      3.676000     -0.627000
C          20.139000      4.629000     -0.860000
H          19.172000      4.111000     -0.871000
H          20.405000      5.149000     -1.789000
H          20.085000      5.317000     -0.007000
O          22.759000      5.387000     -0.611000
C          22.518000      4.190000     -0.544000
C          23.609000      3.050000     -0.449000
H          23.609000      2.704000      0.592000
H          24.520000      3.638000     -0.614000
C          23.269000      1.780000     -1.269000
H          22.421000      1.993000     -1.931000
H          24.072000      1.608000     -1.996000
C          23.006000      0.521000     -0.397000
H          23.180000     -0.356000     -1.031000
H          23.846000      0.377000      0.294000
C          21.706000      0.487000      0.398000
C          21.834000      0.914000      1.828000
C          22.570000      0.111000      2.666000
H          22.946000     -0.805000      2.220000
C          22.995000      0.647000      3.874000
H          23.622000      0.093000      4.567000
C          22.425000      1.859000      4.337000
H          22.726000      2.159000      5.337000
C          21.607000      2.659000      3.561000
H          21.255000      3.627000      3.904000
C          21.328000      2.159000      2.297000
H          20.846000      2.867000      1.629000
C          17.519000     -2.690000      2.072000
C          16.473000     -0.501000      1.913000
C          14.083000     -1.382000     -1.888000
C          19.866000     -3.938000     -2.329000
C          16.371000      0.242000     -4.049000
C          17.608000     -1.285000      2.257000
C          18.510000     -2.715000     -4.398000
C          14.439000     -2.749000      0.072000
C          18.349000      1.746000     -0.911000
C          20.371000     -2.755000     -2.841000
C          20.392000      0.604000     -0.331000
C          19.064000      1.423000     -2.098000
C          19.775000     -0.716000     -3.709000
C          17.397000     -1.916000     -4.736000
C          18.360000      0.591000      1.250000
C          15.153000     -1.896000     -3.829000
C          20.750000     -0.710000      0.249000
C          20.959000     -1.879000     -0.647000
C          15.213000     -0.488000     -3.674000
C          16.607000     -4.932000     -1.649000
C          14.806000     -3.678000     -2.177000
C          14.846000     -3.772000     -0.780000
C          15.183000     -2.450000      1.250000
C          20.313000     -2.948000     -0.099000
C          19.091000      1.176000      0.156000
C          15.288000     -1.078000      1.444000
C          19.698000     -2.120000     -3.918000
C          16.951000      0.672000      1.310000
C          18.297000      1.171000     -3.281000
C          18.739000     -4.775000     -0.496000
C          14.093000     -1.519000     -0.497000
C          20.213000      0.674000     -1.719000
C          16.678000     -4.322000      0.748000
C          18.616000      0.014000     -4.048000
C          16.938000      1.798000     -0.904000
C          16.619000     -3.779000     -3.786000
C          18.058000     -3.957000     -3.842000
C          16.234000      1.515000     -2.049000
C          19.871000     -3.984000     -0.926000
C          20.867000     -1.718000     -2.051000
C          17.997000     -5.071000     -1.677000
C          19.843000     -1.299000      1.312000
C          15.089000      0.704000     -0.270000
C          20.522000     -0.468000     -2.537000
C          16.903000      1.239000     -3.256000
C          18.058000     -4.436000      0.709000
C          14.586000     -0.190000     -2.446000
C          16.317000     -3.199000      1.537000
C          14.425000     -2.468000     -2.754000
C          16.213000      1.282000      0.218000
C          15.086000      0.838000     -1.635000
C          18.770000     -0.609000      1.823000
C          19.736000     -2.653000      1.110000
C          15.914000     -4.364000     -2.741000
C          14.620000     -0.508000      0.361000
C          17.477000     -0.530000     -4.563000
C          18.710000     -4.593000     -2.789000
C          16.226000     -2.609000     -4.393000
C          18.564000     -3.334000      1.463000
C          15.932000     -4.604000     -0.426000
O          17.371000     -1.124000    -10.240000
C          16.492000      0.026000    -10.143000
H          17.109000      0.877000     -9.827000
H          15.702000     -0.042000     -9.386000
H          16.159000      0.380000    -11.127000
O          18.942000     -0.096000    -11.437000
C          18.527000     -1.029000    -10.827000
C          19.237000     -2.340000    -10.677000
H          19.526000     -2.601000    -11.703000
H          18.501000     -3.116000    -10.431000
C          20.268000     -2.166000     -9.537000
H          19.795000     -1.644000     -8.696000
H          20.654000     -3.139000     -9.210000
C          21.490000     -1.317000     -9.953000
H          22.194000     -1.890000    -10.570000
H          21.151000     -0.401000    -10.451000
C          22.253000     -0.805000     -8.675000
C          23.056000     -1.935000     -8.049000
C          22.370000     -2.727000     -7.106000
H          21.365000     -2.407000     -6.846000
C          22.961000     -3.986000     -6.734000
H          22.463000     -4.767000     -6.167000
C          24.283000     -4.259000     -7.139000
H          24.790000     -5.188000     -6.895000
C          24.989000     -3.326000     -7.930000
H          26.042000     -3.410000     -8.182000
C          24.385000     -2.217000     -8.455000
H          24.920000     -1.598000     -9.169000
C          22.444000      2.570000     -4.342000
C          24.807000      2.497000     -5.086000
C          24.619000      6.737000     -6.836000
C          19.281000      3.699000     -8.067000
C          24.181000      5.790000    -10.181000
C          23.528000      1.901000     -4.931000
C          20.483000      5.518000     -9.909000
C          23.726000      5.845000     -4.775000
C          24.846000      1.909000     -9.108000
C          19.802000      3.250000     -9.252000
C          22.935000      0.571000     -8.787000
C          23.994000      2.288000    -10.144000
C          21.563000      3.480000    -10.644000
C          21.721000      6.188000    -10.097000
C          24.410000      1.156000     -6.841000
C          23.238000      7.308000     -8.508000
C          21.759000      0.410000     -7.880000
C          20.489000      1.201000     -8.174000
C          24.368000      6.659000     -9.064000
C          20.368000      6.208000     -5.919000
C          22.281000      7.263000     -6.319000
C          22.475000      6.525000     -5.140000
C          23.752000      4.612000     -4.234000
C          20.012000      1.660000     -6.929000
C          24.289000      0.993000     -8.194000
C          24.859000      3.889000     -4.756000
C          20.496000      4.110000    -10.105000
C          25.338000      2.054000     -6.293000
C          24.008000      3.563000    -10.712000
C          19.572000      3.876000     -5.829000
C          24.791000      5.962000     -5.673000
C          22.782000      1.524000     -9.942000
C          21.330000      4.562000     -4.318000
C          22.741000      4.191000    -10.908000
C          25.727000      2.854000     -8.624000
C          20.785000      6.953000     -8.241000
C          19.866000      5.990000     -8.742000
C          25.734000      4.182000     -9.150000
C          19.382000      2.943000     -6.869000
C          20.478000      2.053000     -9.261000
C          19.600000      5.145000     -6.365000
C          22.016000      0.815000     -6.456000
C          26.001000      4.265000     -6.932000
C          21.596000      2.187000    -10.122000
C          24.892000      4.589000    -10.250000
C          20.448000      3.602000     -4.725000
C          25.211000      6.283000     -8.013000
C          22.525000      3.951000     -3.939000
C          23.405000      7.313000     -7.143000
C          25.887000      2.937000     -7.215000
C          25.919000      5.057000     -8.089000
C          23.321000      1.042000     -6.000000
C          20.935000      1.467000     -5.902000
C          21.005000      7.041000     -6.850000
C          25.485000      4.782000     -5.708000
C          22.862000      5.586000    -10.717000
C          19.334000      5.051000     -7.768000
C          21.936000      7.066000     -9.032000
C          21.159000      2.430000     -4.840000
C          21.284000      5.896000     -4.875000
$end

--------------------------------------------------------------
 ----------------------------------------------------------------
             Standard Nuclear Orientation (Angstroms)
    I     Atom           X                Y                Z
 ----------------------------------------------------------------
    1      O       1.0394143365     4.4698072293     0.6782316083
    2      C       0.9146650404     4.4524452344     2.1430384810
    3      H       1.6099249709     3.7257255488     2.5812463399
    4      H      -0.1485863042     4.2630082394     2.3374792256
    5      H       1.2350211403     5.4262345628     2.5341590676
    6      O      -0.4931088423     6.1684078322     0.5384793333
    7      C       0.2513221220     5.3728905212    -0.0168167565
    8      C       0.3670212854     5.1806055603    -1.5815998716
    9      H       1.3041666499     5.6622952253    -1.8867729905
   10      H      -0.4661409015     5.8099158176    -1.9173071406
   11      C       0.5381306952     3.7061624308    -2.0261659832
   12      H       0.3413757310     3.0458290053    -1.1729577723
   13      H      -0.2898393285     3.4448374275    -2.6963128942
   14      C       1.9174918028     3.4013013664    -2.6735118461
   15      H       1.7948298128     2.5063948018    -3.2943639031
   16      H       2.1058209825     4.1204315174    -3.4804820723
   17      C       3.1278819766     3.3756377435    -1.7475107631
   18      C       3.9164143283     4.6486138336    -1.7106108406
   19      C       4.5825177075     5.0152094955    -2.8554527113
   20      H       4.5233937377     4.3051237168    -3.6749833959
   21      C       5.0154463382     6.3297229480    -2.9641365830
   22      H       5.5041740987     6.7085764791    -3.8573942044
   23      C       5.0336323673     7.1543998892    -1.8118387869
   24      H       5.4856663147     8.1326636878    -1.9506417076
   25      C       4.4530469793     6.7935797151    -0.6101610392
   26      H       4.3996004409     7.4768983377     0.2317392682
   27      C       3.8931030665     5.5241177341    -0.5885718460
   28      H       3.2802253215     5.3170888239     0.2839715054
   29      C       7.8642523262     0.8016430343    -0.5779291506
   30      C       7.1698333226     1.6190221171     1.6039946983
   31      C       5.9069623122    -2.4525852109     3.2662319190
   32      C       4.1260072022    -1.9449638097    -2.7952221482
   33      C       2.4529511972    -1.9484464761     2.6679908693
   34      C       7.2756502486     1.8316851563     0.2022835262
   35      C       2.6358016989    -3.1300991795    -0.7977317945
   36      C       7.8534646024    -1.8417830280     1.9719852163
   37      C       3.1153282646     1.8957237126     1.7706859149
   38      C       2.9365418018    -1.3467170883    -2.4158398587
   39      C       3.1458542528     2.4189457765    -0.5829750283
   40      C       2.0621977809     1.1971570377     1.1168940633
   41      C       1.5814930596    -0.9105681374    -0.6159015267
   42      C       2.5168487569    -3.3203952358     0.5954844875
   43      C       5.2681267570     2.6298544447     0.8593255477
   44      C       4.2242591248    -3.6270130322     2.2834774858
   45      C       4.0465028295     2.1409133373    -1.7243295325
   46      C       3.8561085690     0.9045588495    -2.5294603331
   47      C       3.6255771433    -2.6271253258     3.0908766805
   48      C       6.6329224544    -3.4494982047    -0.9181848091
   49      C       6.4733515934    -3.7688482471     1.3105937108
   50      C       7.5321084927    -2.8767103196     1.0980643093
   51      C       8.2306805238    -0.5624880937     1.4702545916
   52      C       5.0824942183     0.3428016964    -2.7314210720
   53      C       3.8343677939     2.5620937833     0.7445835398
   54      C       7.6573155154     0.4597408528     2.2168103819
   55      C       2.1462838702    -1.9510861050    -1.4027685418
   56      C       5.9306320004     2.1391165746     2.0063674586
   57      C       1.6691533077    -0.0658714156     1.6660362746
   58      C       6.4129649634    -1.7024869712    -2.5912217042
   59      C       6.9962140659    -1.6034446700     3.0511948089
   60      C       2.1702967721     1.4606533008    -0.2772821549
   61      C       8.0731378691    -1.4403557938    -0.8092062247
   62      C       1.5168468633    -1.1632104360     0.7708553872
   63      C       3.7537381279     1.3507824410     2.9060915063
   64      C       4.4880865856    -4.1593402760    -0.0281705792
   65      C       3.8617348189    -3.7136004534    -1.2588372583
   66      C       3.3744380930     0.1199437928     3.3834778337
   67      C       5.1821730980    -1.0335354713    -2.9513054095
   68      C       2.7838488516     0.0277725047    -2.2343234089
   69      C       6.0311402706    -2.9811056228    -2.0889416551
   70      C       5.5414577181     2.1129046235    -1.4716154786
   71      C       5.6172659956     0.3349958014     3.6223556957
   72      C       1.9776949015     0.3343846246    -1.1508909852
   73      C       2.3051361527    -0.5818669599     2.7964164845
   74      C       7.4557341630    -0.9679648354    -1.9557560257
   75      C       4.6800798703    -1.8803411167     3.6567868711
   76      C       8.2778383399    -0.3666746057     0.0959332251
   77      C       5.6362605003    -3.5626691109     2.4055634207
   78      C       5.1717987053     1.4824440964     3.0562061541
   79      C       4.5454080192    -0.4957355578     3.8277720710
   80      C       6.0838628312     2.4391491706    -0.2518158276
   81      C       6.1010891985     1.0956451856    -2.2048036141
   82      C       5.8735242905    -4.1136130636     0.0705532162
   83      C       6.8919225943    -0.1868115143     3.1864271686
   84      C       1.9328307538    -2.3138463906     1.3720843809
   85      C       4.6445565125    -3.1345523914    -2.2539767149
   86      C       3.6539055317    -4.0029223693     1.0541756722
   87      C       7.2401583806     0.4268181230    -1.7388146027
   88      C       7.6915370291    -2.7072787677    -0.2957834195
   89      O      -1.9211150807    -6.5200440385     1.5898086379
   90      C      -1.9988333050    -6.1058106207     2.9779442772
   91      H      -2.4675391786    -5.1134071881     2.9919525236
   92      H      -1.0379893798    -5.9676291049     3.4873143000
   93      H      -2.7423587824    -6.6817548375     3.5435582124
   94      O      -4.0385536260    -6.0360797511     1.1000468844
   95      C      -2.9403725412    -6.3769603110     0.7957234561
   96      C      -2.5230247560    -6.7954280368    -0.5812393570
   97      H      -3.2886031676    -7.5236520412    -0.8777144743
   98      H      -1.6202377488    -7.4148045645    -0.5055007503
   99      C      -2.2469947201    -5.5005672193    -1.3812267835
  100      H      -1.6591671268    -4.8103209050    -0.7635596028
  101      H      -1.7121886819    -5.7250975210    -2.3119376114
  102      C      -3.5376758737    -4.7492456265    -1.7772053487
  103      H      -4.0430750575    -5.2260769239    -2.6268155999
  104      H      -4.1929645771    -4.6549234104    -0.9033168920
  105      C      -3.1991254887    -3.2634261813    -2.1713134725
  106      C      -2.5617331368    -3.2133256098    -3.5514605380
  107      C      -1.1597619701    -3.3560770617    -3.5862149720
  108      H      -0.6544118961    -3.3986014992    -2.6255704098
  109      C      -0.5482310243    -3.6430288082    -4.8576057843
  110      H       0.4829678020    -3.9527904589    -4.9994884832
  111      C      -1.3314849620    -3.5376266961    -6.0244998086
  112      H      -0.9358585435    -3.7405102851    -7.0154306771
  113      C      -2.6991505033    -3.1977460600    -5.9318816657
  114      H      -3.3358350541    -2.9840002885    -6.7852951223
  115      C      -3.3446131395    -3.1112764955    -4.7292915444
  116      H      -4.4228094181    -2.9847973161    -4.7032569150
  117      C      -1.7306559915     1.8008284627    -0.6224696341
  118      C      -3.3474404198     2.2326658625    -2.4506267861
  119      C      -6.6152960453     3.6098683385     0.4648280585
  120      C      -3.5547103830    -1.2945442655     2.8770057909
  121      C      -8.4203352369     0.6071048365     0.5188916135
  122      C      -2.3460168390     1.4399790369    -1.8310459532
  123      C      -6.3611692942    -0.9042642201     3.2205154206
  124      C      -4.2424096012     4.0671950616     0.4317192691
  125      C      -6.0497630710    -0.8037385098    -2.4887027172
  126      C      -4.4545070948    -2.1497601398     2.2971448714
  127      C      -4.2697162419    -2.2053494186    -1.8467321988
  128      C      -6.6016273184    -1.6129706152    -1.4970221981
  129      C      -6.4163158361    -2.2117537941     1.1839745119
  130      C      -7.4038368956    -0.1047369647     2.6815456247
  131      C      -3.8056760859     0.0657672941    -2.8118547872
  132      C      -7.4833796213     2.2762194093     2.0448905379
  133      C      -2.9726881313    -2.1836280985    -1.1059270527
  134      C      -2.9819789205    -2.4142010721     0.4013110788
  135      C      -8.1055713495     1.9687762512     0.8097414951
  136      C      -3.6966419768     2.1425489362     3.3837599179
  137      C      -5.3982532564     3.3170026755     2.5727288041
  138      C      -4.2589879421     3.7282884701     1.8619267649
  139      C      -3.2550263507     3.6763351102    -0.3965010005
  140      C      -2.0632740519    -1.4945452568     0.9476164383
  141      C      -4.6690759001    -0.9894382980    -2.6982725737
  142      C      -3.8053653813     3.3363303899    -1.6622757599
  143      C      -5.8268364823    -1.9014578960     2.3596192487
  144      C      -4.2710710032     1.3705813223    -3.0326712784
  145      C      -7.6480565282    -1.1976678573    -0.6718225082
  146      C      -2.1238932809     0.4310058057     2.5609466633
  147      C      -5.4595743056     3.9784848474    -0.2501594447
  148      C      -5.5150141830    -2.4506037643    -1.0375805789
  149      C      -2.1623303635     2.5905546616     1.4750588562
  150      C      -7.5070571346    -1.4623906677     0.7239317698
  151      C      -6.5633567224     0.4680071521    -2.6381233739
  152      C      -5.9685858757     1.2234918693     3.7216993030
  153      C      -5.4410523352    -0.0864281282     3.8912544971
  154      C      -7.6012921865     0.9413050357    -1.7784792117
  155      C      -2.3492494972    -0.9200470331     2.2261933174
  156      C      -4.1941857581    -2.6179666283     1.0310953124
  157      C      -3.1503049357     0.8697578585     3.3686698530
  158      C      -2.2380884458    -0.8750889887    -1.1829900152
  159      C      -6.1283024739     2.5854049325    -2.1319460925
  160      C      -5.4170345652    -2.6495673686     0.3149646065
  161      C      -8.2187127138     0.1107469888    -0.7717129910
  162      C      -1.5841063498     1.3605827346     1.6092193903
  163      C      -7.5398889373     2.7861810911    -0.1743716774
  164      C      -2.1428526741     2.9584389876     0.1299682487
  165      C      -6.5557026949     3.2606136197     1.7968531235
  166      C      -5.6378742881     1.5272081320    -2.8364804961
  167      C      -7.3298705118     2.2684323204    -1.4774236608
  168      C      -2.6208643924     0.1083365363    -2.1043188444
  169      C      -1.6417029003    -0.5469212424     0.0158474264
  170      C      -5.0868327794     2.2984958714     3.4810691459
  171      C      -5.2351273172     3.5108434617    -1.5175173594
  172      C      -8.1012972058    -0.4213329270     1.4724132447
  173      C      -4.0165311850    -0.2359490365     3.6426504133
  174      C      -7.1449226949     1.2392912205     2.9606256743
  175      C      -1.4305665013     0.8514267238     0.3405525027
  176      C      -3.2013427436     3.0249905499     2.3826048511
 ----------------------------------------------------------------
 Molecular Point Group                 C1    NOp =  1
 Largest Abelian Subgroup              C1    NOp =  1
 Nuclear Repulsion Energy = 36081.9988368034 hartrees
 There are      462 alpha and      462 beta electrons
 Requested basis set is 6-31G(d,p)
 There are 676 shells and 2360 basis functions

 Total QAlloc Memory Limit  20000 MB
 Mega-Array Size      4888 MB
 MEM_STATIC part      5000 MB
 A cutoff of  1.0D-08 yielded  39891 shell pairs
 There are    553164 function pairs
 
 -------------------------------------------------------
 OpenMP Integral Computing Module                       
 Release: version 1.0, May 2013, Q-Chem Inc. Pittsburgh 
 -------------------------------------------------------
 Integral Job Info:
 Integral job number is                      11
 Integral operator is                         1
 short-range coefficients                     0
 long-range coefficients              100000000
 Omega coefficients                           0
 if combine SR and LR in K                    0
 Integral screening is                        0
 Integral computing path is                   2
 max size of driver memory is            800000
 size of driver memory is                593474
 size of scratch memory is              2260544
 max col of scratch BK array               1296
 max len of scratch array in speh3          155
 max len of scratch index in speh4           18
 max int batch size is                      520
 min int batch size is                       52
 fixed nKL is                                52
 max L of basis functions is                  2
 order of int derivative is                   0
 number of shells is                        676
 number of basis is                        2360
 number of cartesian basis is              2360
 number of contracted shell pairs         39891
 number of primitive shell pairs         118582
 maxK2 (contraction) of shell pair           36
 max number of K2 of shell pair               1
 max number of CS2 of shell pair           7521
 max number of PS2 of shell pair          35586
 mem total for path MDJ                 1570600
 -------------------------------------------------------
 Smallest overlap matrix eigenvalue = 2.46E-04

 Scale SEOQF with 1.000000e-02/1.000000e-02/1.000000e-02

 Standard Electronic Orientation quadrupole field applied
 Nucleus-field energy     =     0.0000000897 hartrees
 Guess from superposition of atomic densities
 Warning:  Energy on first SCF cycle will be non-variational
 A restricted hybrid HF-DFT SCF calculation will be
 performed using Pulay DIIS extrapolation
 Exchange:     0.2000 Hartree-Fock + 0.0800 Slater + 0.7200 B88
 Correlation:  0.1900 VWN1RPA + 0.8100 LYP
 Using SG-1 standard quadrature grid
 SCF converges when DIIS error is below 1.0E-05
 using 16 threads for integral computing 
 -------------------------------------------------------
 OpenMP BLAS3 based DFT computing Module                
 Release: version 1.0, May 2013, Q-Chem Inc. Pittsburgh 
 -------------------------------------------------------
 ---------------------------------------
  Cycle       Energy         DIIS Error
 ---------------------------------------
    1   -5858.5540433163      1.83E-02
    2   -5803.1397756864      1.28E-03
    3   -5802.5351472846      1.71E-03
    4   -5804.0217804608      6.06E-04
    5   -5804.1970267369      3.05E-04
    6   -5804.2523231330      1.39E-04
    7   -5804.2657788201      5.02E-05
    8   -5804.2671471582      2.96E-05
    9   -5804.2677501029      8.37E-06 Convergence criterion met
 ---------------------------------------
 SCF time:  CPU 8691.45 s  wall 891.58 s
 SCF   energy in the final basis set = -5804.2677501029
 Total energy in the final basis set = -5804.2677501029
 
 --------------------------------------------------------------
 
                    Orbital Energies (a.u.)
 --------------------------------------------------------------
 
 Alpha MOs
 -- Occupied --
-19.200 -19.191 -19.136 -19.132 -10.317 -10.308 -10.250 -10.241
-10.239 -10.237 -10.236 -10.235 -10.234 -10.231 -10.231 -10.228
-10.228 -10.226 -10.225 -10.225 -10.224 -10.224 -10.222 -10.222
-10.222 -10.222 -10.222 -10.222 -10.221 -10.221 -10.221 -10.221
-10.221 -10.221 -10.220 -10.220 -10.220 -10.220 -10.220 -10.220
-10.219 -10.219 -10.219 -10.219 -10.219 -10.219 -10.218 -10.218
-10.218 -10.218 -10.218 -10.218 -10.218 -10.218 -10.218 -10.217
-10.217 -10.217 -10.217 -10.217 -10.217 -10.217 -10.217 -10.217
-10.216 -10.216 -10.216 -10.216 -10.216 -10.216 -10.216 -10.216
-10.216 -10.215 -10.215 -10.215 -10.215 -10.215 -10.215 -10.215
-10.215 -10.215 -10.215 -10.214 -10.214 -10.214 -10.214 -10.214
-10.214 -10.214 -10.214 -10.214 -10.214 -10.213 -10.213 -10.213
-10.213 -10.213 -10.213 -10.212 -10.212 -10.212 -10.212 -10.212
-10.212 -10.212 -10.211 -10.211 -10.211 -10.211 -10.211 -10.211
-10.211 -10.211 -10.211 -10.210 -10.210 -10.210 -10.210 -10.209
-10.209 -10.209 -10.209 -10.209 -10.209 -10.208 -10.208 -10.208
-10.206 -10.206 -10.206 -10.205 -10.205 -10.203 -10.202 -10.201
-10.201 -10.199 -10.199 -10.198 -10.196 -10.196 -10.195 -10.195
-10.195 -10.195 -10.194 -10.194  -1.119  -1.082  -1.026  -1.003
 -0.985  -0.982  -0.969  -0.965  -0.963  -0.963  -0.963  -0.960
 -0.937  -0.930  -0.928  -0.928  -0.926  -0.925  -0.923  -0.922
 -0.922  -0.921  -0.898  -0.897  -0.892  -0.889  -0.888  -0.885
 -0.878  -0.871  -0.858  -0.850  -0.844  -0.840  -0.840  -0.839
 -0.838  -0.837  -0.822  -0.818  -0.806  -0.802  -0.799  -0.799
 -0.798  -0.796  -0.795  -0.794  -0.792  -0.788  -0.785  -0.782
 -0.773  -0.772  -0.771  -0.768  -0.768  -0.766  -0.764  -0.763
 -0.752  -0.750  -0.746  -0.738  -0.732  -0.732  -0.717  -0.716
 -0.716  -0.715  -0.714  -0.713  -0.712  -0.711  -0.710  -0.709
 -0.708  -0.707  -0.707  -0.704  -0.702  -0.700  -0.675  -0.670
 -0.661  -0.660  -0.657  -0.656  -0.650  -0.646  -0.632  -0.631
 -0.629  -0.627  -0.627  -0.625  -0.624  -0.621  -0.616  -0.615
 -0.615  -0.614  -0.614  -0.611  -0.611  -0.610  -0.609  -0.609
 -0.608  -0.605  -0.604  -0.603  -0.575  -0.567  -0.566  -0.562
 -0.561  -0.560  -0.558  -0.558  -0.556  -0.556  -0.556  -0.554
 -0.537  -0.535  -0.534  -0.531  -0.530  -0.526  -0.526  -0.526
 -0.525  -0.521  -0.520  -0.519  -0.519  -0.516  -0.515  -0.514
 -0.511  -0.508  -0.503  -0.497  -0.491  -0.489  -0.487  -0.486
 -0.485  -0.484  -0.483  -0.482  -0.481  -0.479  -0.477  -0.475
 -0.474  -0.473  -0.471  -0.469  -0.469  -0.468  -0.466  -0.466
 -0.466  -0.465  -0.463  -0.463  -0.462  -0.460  -0.459  -0.456
 -0.456  -0.455  -0.453  -0.452  -0.447  -0.447  -0.443  -0.443
 -0.442  -0.442  -0.441  -0.440  -0.439  -0.436  -0.435  -0.433
 -0.432  -0.429  -0.429  -0.428  -0.427  -0.426  -0.426  -0.424
 -0.424  -0.423  -0.421  -0.421  -0.421  -0.421  -0.419  -0.419
 -0.418  -0.417  -0.416  -0.415  -0.415  -0.414  -0.414  -0.413
 -0.412  -0.411  -0.409  -0.407  -0.402  -0.401  -0.398  -0.394
 -0.394  -0.394  -0.391  -0.389  -0.389  -0.387  -0.385  -0.384
 -0.381  -0.376  -0.375  -0.374  -0.373  -0.370  -0.367  -0.367
 -0.366  -0.364  -0.363  -0.362  -0.362  -0.362  -0.359  -0.359
 -0.359  -0.357  -0.357  -0.355  -0.355  -0.353  -0.352  -0.351
 -0.351  -0.348  -0.348  -0.347  -0.346  -0.346  -0.343  -0.343
 -0.342  -0.342  -0.341  -0.341  -0.338  -0.337  -0.337  -0.334
 -0.333  -0.333  -0.331  -0.329  -0.328  -0.326  -0.325  -0.319
 -0.311  -0.307  -0.303  -0.297  -0.290  -0.285  -0.273  -0.271
 -0.270  -0.270  -0.269  -0.268  -0.266  -0.265  -0.265  -0.264
 -0.263  -0.262  -0.261  -0.261  -0.258  -0.257  -0.255  -0.253
 -0.249  -0.244  -0.242  -0.241  -0.226  -0.219  -0.215  -0.211
 -0.210  -0.209  -0.208  -0.206  -0.200  -0.200
 -- Virtual --
 -0.124  -0.123  -0.122  -0.119  -0.109  -0.109  -0.083  -0.078
 -0.077  -0.072  -0.060  -0.059  -0.052  -0.049  -0.026  -0.025
 -0.023  -0.021  -0.019  -0.018  -0.017  -0.015  -0.015  -0.013
 -0.012  -0.011  -0.010  -0.008  -0.008  -0.007   0.005   0.010
  0.014   0.023   0.031   0.035   0.039   0.042   0.044   0.046
  0.047   0.052   0.054   0.057   0.060   0.061   0.061   0.065
  0.066   0.072   0.079   0.082   0.085   0.088   0.089   0.091
  0.094   0.096   0.097   0.098   0.100   0.102   0.103   0.104
  0.107   0.110   0.111   0.112   0.115   0.115   0.116   0.120
  0.121   0.122   0.125   0.126   0.127   0.130   0.134   0.138
  0.141   0.144   0.146   0.150   0.152   0.155   0.155   0.159
  0.160   0.163   0.163   0.164   0.165   0.167   0.168   0.171
  0.175   0.175   0.176   0.177   0.178   0.179   0.181   0.182
  0.183   0.184   0.184   0.186   0.188   0.189   0.192   0.193
  0.194   0.198   0.198   0.199   0.201   0.202   0.204   0.205
  0.209   0.209   0.212   0.215   0.215   0.217   0.218   0.222
  0.222   0.224   0.225   0.225   0.226   0.227   0.228   0.231
  0.233   0.233   0.234   0.235   0.236   0.237   0.238   0.239
  0.241   0.244   0.246   0.247   0.250   0.251   0.257   0.258
  0.262   0.265   0.270   0.271   0.271   0.275   0.275   0.279
  0.281   0.282   0.287   0.288   0.294   0.299   0.300   0.306
  0.307   0.308   0.309   0.310   0.312   0.315   0.317   0.319
  0.319   0.321   0.324   0.325   0.328   0.329   0.331   0.331
  0.332   0.333   0.337   0.341   0.342   0.344   0.344   0.346
  0.346   0.349   0.352   0.363   0.369   0.379   0.385   0.388
  0.392   0.394   0.400   0.401   0.402   0.404   0.406   0.406
  0.407   0.410   0.410   0.413   0.417   0.418   0.419   0.424
  0.428   0.429   0.429   0.432   0.433   0.434   0.441   0.445
  0.448   0.449   0.450   0.451   0.454   0.456   0.459   0.460
  0.463   0.464   0.469   0.469   0.471   0.472   0.474   0.475
  0.477   0.478   0.479   0.480   0.481   0.482   0.484   0.484
  0.487   0.488   0.488   0.489   0.490   0.490   0.494   0.494
  0.495   0.496   0.498   0.499   0.501   0.501   0.503   0.504
  0.505   0.506   0.507   0.508   0.509   0.510   0.511   0.513
  0.513   0.514   0.515   0.516   0.517   0.517   0.518   0.519
  0.520   0.521   0.522   0.522   0.523   0.524   0.526   0.526
  0.528   0.528   0.529   0.531   0.531   0.532   0.533   0.533
  0.534   0.534   0.535   0.536   0.537   0.538   0.538   0.539
  0.540   0.540   0.541   0.542   0.543   0.544   0.544   0.545
  0.546   0.546   0.547   0.548   0.549   0.550   0.550   0.550
  0.552   0.552   0.553   0.554   0.554   0.556   0.556   0.557
  0.558   0.558   0.559   0.559   0.561   0.561   0.562   0.564
  0.565   0.565   0.566   0.567   0.568   0.569   0.570   0.571
  0.572   0.572   0.573   0.574   0.575   0.576   0.576   0.578
  0.579   0.580   0.581   0.582   0.582   0.583   0.584   0.585
  0.587   0.587   0.588   0.588   0.590   0.590   0.590   0.592
  0.593   0.593   0.595   0.597   0.597   0.598   0.598   0.599
  0.601   0.601   0.603   0.604   0.605   0.606   0.607   0.608
  0.610   0.611   0.612   0.614   0.614   0.616   0.616   0.618
  0.618   0.621   0.621   0.623   0.624   0.625   0.627   0.627
  0.628   0.629   0.629   0.630   0.631   0.632   0.632   0.633
  0.634   0.634   0.636   0.636   0.637   0.639   0.639   0.641
  0.641   0.642   0.644   0.645   0.647   0.649   0.649   0.650
  0.651   0.652   0.653   0.654   0.654   0.655   0.657   0.657
  0.657   0.659   0.660   0.662   0.662   0.664   0.665   0.665
  0.665   0.666   0.666   0.667   0.668   0.668   0.669   0.670
  0.671   0.672   0.673   0.674   0.676   0.677   0.678   0.679
  0.680   0.681   0.683   0.684   0.685   0.685   0.688   0.688
  0.689   0.690   0.691   0.692   0.694   0.694   0.696   0.697
  0.698   0.698   0.699   0.700   0.702   0.704   0.705   0.707
  0.708   0.710   0.711   0.712   0.713   0.714   0.717   0.717
  0.718   0.721   0.721   0.721   0.722   0.723   0.725   0.726
  0.726   0.727   0.729   0.729   0.731   0.732   0.735   0.736
  0.737   0.738   0.740   0.741   0.743   0.745   0.747   0.750
  0.751   0.752   0.752   0.754   0.756   0.758   0.758   0.759
  0.760   0.762   0.763   0.764   0.766   0.767   0.768   0.769
  0.770   0.772   0.773   0.774   0.776   0.777   0.779   0.780
  0.781   0.782   0.783   0.784   0.785   0.786   0.788   0.790
  0.791   0.792   0.793   0.794   0.795   0.796   0.797   0.798
  0.799   0.801   0.803   0.805   0.805   0.806   0.806   0.807
  0.808   0.809   0.810   0.811   0.812   0.812   0.813   0.814
  0.815   0.816   0.816   0.817   0.818   0.819   0.819   0.820
  0.821   0.822   0.823   0.824   0.825   0.826   0.826   0.827
  0.829   0.830   0.832   0.834   0.835   0.836   0.838   0.840
  0.843   0.845   0.846   0.848   0.850   0.850   0.851   0.854
  0.856   0.859   0.861   0.863   0.867   0.868   0.871   0.876
  0.876   0.880   0.881   0.882   0.887   0.890   0.894   0.897
  0.897   0.901   0.903   0.905   0.909   0.912   0.913   0.917
  0.918   0.922   0.924   0.926   0.926   0.929   0.930   0.931
  0.933   0.933   0.936   0.936   0.937   0.939   0.941   0.943
  0.944   0.945   0.947   0.949   0.952   0.955   0.957   0.957
  0.962   0.962   0.967   0.969   0.972   0.974   0.975   0.980
  0.981   0.982   0.984   0.987   0.991   0.994   0.995   0.996
  0.999   1.000   1.001   1.005   1.005   1.006   1.009   1.011
  1.012   1.013   1.015   1.018   1.018   1.019   1.021   1.024
  1.024   1.027   1.028   1.029   1.031   1.032   1.033   1.034
  1.037   1.038   1.039   1.041   1.042   1.045   1.047   1.049
  1.050   1.052   1.053   1.055   1.056   1.058   1.058   1.060
  1.062   1.064   1.066   1.067   1.069   1.071   1.073   1.075
  1.075   1.077   1.080   1.081   1.083   1.085   1.086   1.087
  1.090   1.092   1.094   1.095   1.095   1.097   1.099   1.100
  1.104   1.105   1.107   1.109   1.110   1.115   1.115   1.117
  1.118   1.119   1.122   1.123   1.125   1.130   1.132   1.133
  1.135   1.139   1.141   1.144   1.145   1.147   1.149   1.149
  1.153   1.155   1.156   1.157   1.159   1.159   1.162   1.163
  1.164   1.166   1.167   1.168   1.169   1.170   1.174   1.174
  1.177   1.179   1.179   1.181   1.184   1.187   1.188   1.191
  1.192   1.193   1.196   1.197   1.199   1.200   1.203   1.204
  1.208   1.210   1.211   1.213   1.217   1.219   1.222   1.224
  1.226   1.228   1.234   1.235   1.237   1.239   1.242   1.244
  1.248   1.253   1.254   1.255   1.257   1.259   1.260   1.262
  1.264   1.265   1.271   1.272   1.273   1.275   1.280   1.281
  1.282   1.285   1.285   1.287   1.290   1.292   1.293   1.295
  1.298   1.300   1.302   1.306   1.307   1.311   1.317   1.318
  1.320   1.323   1.327   1.328   1.329   1.332   1.334   1.337
  1.338   1.339   1.340   1.341   1.345   1.349   1.349   1.350
  1.354   1.359   1.360   1.362   1.364   1.366   1.367   1.368
  1.371   1.372   1.375   1.377   1.379   1.381   1.381   1.386
  1.390   1.391   1.392   1.395   1.396   1.399   1.403   1.404
  1.406   1.410   1.410   1.412   1.416   1.419   1.421   1.425
  1.428   1.430   1.433   1.440   1.442   1.444   1.447   1.448
  1.449   1.451   1.452   1.457   1.459   1.462   1.463   1.466
  1.467   1.469   1.472   1.473   1.476   1.476   1.477   1.479
  1.481   1.484   1.486   1.489   1.490   1.492   1.494   1.496
  1.498   1.502   1.503   1.506   1.509   1.513   1.515   1.518
  1.520   1.523   1.528   1.529   1.533   1.540   1.540   1.546
  1.547   1.548   1.551   1.553   1.555   1.556   1.558   1.559
  1.562   1.565   1.569   1.569   1.571   1.576   1.576   1.577
  1.580   1.581   1.584   1.586   1.587   1.589   1.592   1.594
  1.595   1.599   1.604   1.608   1.612   1.616   1.622   1.624
  1.627   1.628   1.630   1.635   1.643   1.644   1.645   1.648
  1.652   1.653   1.654   1.658   1.661   1.665   1.670   1.675
  1.680   1.685   1.686   1.688   1.692   1.695   1.697   1.703
  1.704   1.706   1.707   1.710   1.710   1.713   1.717   1.718
  1.721   1.722   1.724   1.726   1.728   1.730   1.733   1.734
  1.737   1.739   1.740   1.741   1.744   1.745   1.746   1.748
  1.749   1.751   1.753   1.754   1.755   1.758   1.759   1.759
  1.761   1.762   1.764   1.766   1.768   1.768   1.769   1.771
  1.772   1.773   1.774   1.776   1.778   1.779   1.780   1.782
  1.783   1.784   1.785   1.786   1.788   1.789   1.790   1.793
  1.793   1.794   1.795   1.796   1.797   1.798   1.798   1.801
  1.802   1.805   1.806   1.807   1.808   1.810   1.811   1.813
  1.815   1.816   1.818   1.821   1.823   1.824   1.826   1.829
  1.830   1.832   1.834   1.834   1.838   1.841   1.842   1.845
  1.847   1.848   1.849   1.851   1.853   1.854   1.856   1.857
  1.860   1.861   1.863   1.864   1.866   1.870   1.872   1.873
  1.874   1.874   1.875   1.878   1.880   1.884   1.886   1.889
  1.890   1.892   1.895   1.900   1.901   1.903   1.905   1.908
  1.910   1.914   1.916   1.918   1.920   1.921   1.923   1.926
  1.930   1.931   1.933   1.935   1.935   1.936   1.938   1.939
  1.941   1.945   1.947   1.949   1.951   1.952   1.953   1.954
  1.958   1.960   1.962   1.964   1.966   1.968   1.970   1.971
  1.975   1.976   1.977   1.979   1.980   1.982   1.984   1.987
  1.987   1.988   1.991   1.991   1.992   1.994   1.994   1.995
  1.997   1.998   2.000   2.001   2.002   2.004   2.005   2.006
  2.007   2.009   2.010   2.011   2.012   2.013   2.016   2.017
  2.017   2.018   2.020   2.020   2.023   2.024   2.025   2.025
  2.026   2.028   2.029   2.030   2.031   2.031   2.032   2.033
  2.036   2.036   2.039   2.039   2.041   2.042   2.045   2.046
  2.048   2.050   2.051   2.052   2.053   2.054   2.055   2.055
  2.056   2.057   2.060   2.061   2.062   2.065   2.068   2.069
  2.071   2.072   2.073   2.076   2.076   2.077   2.078   2.079
  2.081   2.082   2.084   2.085   2.086   2.088   2.091   2.092
  2.093   2.097   2.099   2.101   2.104   2.105   2.108   2.108
  2.111   2.114   2.115   2.118   2.119   2.122   2.123   2.129
  2.131   2.134   2.137   2.139   2.141   2.144   2.149   2.152
  2.156   2.158   2.161   2.164   2.167   2.173   2.174   2.183
  2.188   2.190   2.195   2.198   2.200   2.202   2.208   2.211
  2.212   2.213   2.218   2.221   2.222   2.224   2.225   2.228
  2.231   2.233   2.236   2.237   2.241   2.243   2.244   2.248
  2.250   2.253   2.257   2.258   2.263   2.266   2.269   2.270
  2.274   2.275   2.278   2.279   2.282   2.282   2.284   2.288
  2.288   2.291   2.293   2.293   2.295   2.296   2.298   2.299
  2.300   2.304   2.306   2.307   2.309   2.315   2.319   2.323
  2.325   2.327   2.329   2.329   2.331   2.333   2.337   2.340
  2.342   2.344   2.347   2.349   2.350   2.351   2.353   2.356
  2.358   2.358   2.361   2.362   2.363   2.364   2.366   2.369
  2.371   2.374   2.376   2.377   2.378   2.380   2.382   2.383
  2.383   2.386   2.386   2.389   2.390   2.391   2.393   2.394
  2.395   2.399   2.399   2.402   2.405   2.406   2.408   2.411
  2.412   2.414   2.414   2.418   2.418   2.422   2.424   2.426
  2.426   2.429   2.430   2.433   2.434   2.442   2.443   2.445
  2.446   2.447   2.451   2.452   2.456   2.458   2.461   2.467
  2.467   2.468   2.469   2.471   2.474   2.475   2.476   2.478
  2.480   2.483   2.484   2.487   2.490   2.490   2.493   2.493
  2.496   2.496   2.497   2.498   2.502   2.504   2.505   2.506
  2.508   2.511   2.513   2.514   2.517   2.517   2.521   2.523
  2.524   2.524   2.528   2.530   2.532   2.533   2.538   2.540
  2.543   2.547   2.549   2.552   2.558   2.562   2.566   2.568
  2.572   2.576   2.580   2.583   2.583   2.586   2.587   2.589
  2.591   2.594   2.595   2.599   2.599   2.601   2.602   2.604
  2.607   2.609   2.612   2.614   2.616   2.617   2.619   2.620
  2.622   2.626   2.628   2.630   2.633   2.635   2.636   2.636
  2.637   2.640   2.640   2.641   2.645   2.645   2.646   2.648
  2.649   2.652   2.652   2.654   2.655   2.657   2.659   2.660
  2.662   2.665   2.666   2.667   2.669   2.670   2.671   2.673
  2.675   2.677   2.680   2.681   2.682   2.686   2.687   2.688
  2.689   2.692   2.694   2.697   2.699   2.700   2.704   2.706
  2.708   2.709   2.712   2.712   2.718   2.719   2.720   2.723
  2.728   2.730   2.734   2.734   2.735   2.739   2.740   2.744
  2.746   2.750   2.754   2.754   2.755   2.756   2.759   2.760
  2.760   2.762   2.766   2.768   2.770   2.773   2.774   2.775
  2.777   2.781   2.782   2.784   2.786   2.790   2.795   2.798
  2.801   2.802   2.804   2.807   2.811   2.813   2.814   2.818
  2.821   2.829   2.830   2.832   2.837   2.838   2.842   2.844
  2.846   2.848   2.849   2.853   2.853   2.857   2.858   2.861
  2.864   2.865   2.866   2.868   2.871   2.872   2.874   2.877
  2.878   2.881   2.885   2.885   2.888   2.889   2.892   2.894
  2.894   2.897   2.898   2.901   2.904   2.905   2.905   2.907
  2.909   2.910   2.911   2.912   2.913   2.914   2.918   2.919
  2.920   2.922   2.923   2.927   2.928   2.931   2.934   2.934
  2.938   2.941   2.943   2.945   2.947   2.951   2.952   2.955
  2.959   2.959   2.964   2.965   2.968   2.972   2.978   2.981
  2.985   2.989   2.994   2.995   2.997   3.000   3.001   3.003
  3.008   3.009   3.012   3.013   3.015   3.018   3.019   3.022
  3.027   3.028   3.034   3.036   3.038   3.041   3.042   3.044
  3.046   3.048   3.051   3.053   3.054   3.059   3.065   3.067
  3.073   3.079   3.081   3.083   3.084   3.090   3.098   3.107
  3.110   3.113   3.119   3.124   3.131   3.142   3.148   3.149
  3.154   3.159   3.163   3.169   3.170   3.179   3.181   3.189
  3.195   3.201   3.206   3.213   3.226   3.231   3.237   3.241
  3.244   3.253   3.257   3.264   3.270   3.271   3.284   3.302
  3.307   3.308   3.312   3.317   3.319   3.325   3.328   3.331
  3.333   3.335   3.343   3.345   3.358   3.360   3.394   3.405
  3.407   3.412   3.419   3.428   3.437   3.438   3.444   3.455
  3.459   3.461   3.466   3.469   3.470   3.482   3.486   3.490
  3.493   3.508   3.515   3.520   3.529   3.530   3.536   3.539
  3.541   3.550   3.560   3.566   3.578   3.581   3.604   3.611
  3.612   3.627   3.675   3.681   3.856   3.873   4.055   4.077
  4.079   4.082   4.085   4.086   4.089   4.092   4.098   4.100
  4.101   4.103   4.107   4.109   4.116   4.116   4.120   4.128
  4.131   4.133   4.137   4.138   4.144   4.150   4.153   4.157
  4.160   4.164   4.169   4.172   4.176   4.180   4.181   4.189
  4.195   4.197   4.203   4.211   4.217   4.227   4.237   4.242
  4.244   4.247   4.253   4.256   4.259   4.262   4.264   4.266
  4.267   4.281   4.283   4.288   4.295   4.299   4.301   4.309
  4.314   4.323   4.331   4.358   4.379   4.383   4.385   4.394
  4.399   4.401   4.404   4.408   4.410   4.416   4.420   4.422
  4.423   4.430   4.433   4.435   4.446   4.463   4.472   4.477
  4.487   4.500   4.504   4.511   4.535   4.543   4.545   4.559
  4.563   4.569   4.620   4.624   4.631   4.631   4.637   4.648
  4.662   4.681   4.689   4.694   4.694   4.699   4.702   4.704
  4.711   4.718   4.723   4.743   4.756   4.767   4.809   4.831
  4.852   4.854   4.861   4.864   4.878   4.880   4.891   4.892
  4.903   4.908   4.955   4.961   4.965   4.967   4.976   4.980
  4.996   4.999   5.003   5.008   5.149   5.165   5.172   5.176
  5.199   5.205   5.213   5.221   5.297   5.333   5.342   5.355
  5.362   5.375
 --------------------------------------------------------------
 
          Ground-State Mulliken Net Atomic Charges

     Atom                 Charge (a.u.)
  ----------------------------------------
      1 O                    -0.483749
      2 C                    -0.085646
      3 H                     0.123045
      4 H                     0.134519
      5 H                     0.124336
      6 O                    -0.472614
      7 C                     0.593554
      8 C                    -0.262920
      9 H                     0.143159
     10 H                     0.137387
     11 C                    -0.188782
     12 H                     0.141783
     13 H                     0.106394
     14 C                    -0.228880
     15 H                     0.112435
     16 H                     0.111997
     17 C                     0.045676
     18 C                     0.081519
     19 C                    -0.102210
     20 H                     0.089111
     21 C                    -0.094847
     22 H                     0.090281
     23 C                    -0.088111
     24 H                     0.083252
     25 C                    -0.076163
     26 H                     0.099334
     27 C                    -0.122885
     28 H                     0.102418
     29 C                    -0.014654
     30 C                     0.016084
     31 C                     0.002265
     32 C                     0.008003
     33 C                    -0.023906
     34 C                    -0.038375
     35 C                     0.007571
     36 C                    -0.011360
     37 C                    -0.028688
     38 C                     0.003533
     39 C                    -0.046570
     40 C                     0.008565
     41 C                    -0.011992
     42 C                    -0.011615
     43 C                     0.000799
     44 C                     0.003165
     45 C                    -0.103035
     46 C                     0.001482
     47 C                     0.004706
     48 C                     0.001301
     49 C                    -0.014831
     50 C                     0.033328
     51 C                    -0.010839
     52 C                     0.026307
     53 C                     0.024153
     54 C                     0.014378
     55 C                    -0.044254
     56 C                    -0.008975
     57 C                    -0.019711
     58 C                    -0.034086
     59 C                    -0.002827
     60 C                     0.038575
     61 C                    -0.007905
     62 C                     0.018153
     63 C                    -0.018558
     64 C                     0.010591
     65 C                    -0.007982
     66 C                     0.017808
     67 C                     0.001102
     68 C                     0.002835
     69 C                     0.004014
     70 C                     0.055431
     71 C                     0.003816
     72 C                     0.016698
     73 C                     0.009558
     74 C                    -0.000883
     75 C                    -0.013074
     76 C                     0.021924
     77 C                    -0.006437
     78 C                    -0.018807
     79 C                     0.010754
     80 C                     0.017245
     81 C                     0.016232
     82 C                    -0.003635
     83 C                    -0.006009
     84 C                     0.002358
     85 C                    -0.004570
     86 C                    -0.000516
     87 C                    -0.001289
     88 C                    -0.013899
     89 O                    -0.430542
     90 C                    -0.106771
     91 H                     0.129489
     92 H                     0.133374
     93 H                     0.135007
     94 O                    -0.472242
     95 C                     0.586477
     96 C                    -0.246063
     97 H                     0.124778
     98 H                     0.119324
     99 C                    -0.204052
    100 H                     0.114662
    101 H                     0.117760
    102 C                    -0.169120
    103 H                     0.111654
    104 H                     0.137969
    105 C                    -0.021459
    106 C                     0.081186
    107 C                    -0.108467
    108 H                     0.096623
    109 C                    -0.105668
    110 H                     0.095436
    111 C                    -0.082856
    112 H                     0.090816
    113 C                    -0.090978
    114 H                     0.086756
    115 C                    -0.088985
    116 H                     0.094767
    117 C                    -0.021228
    118 C                    -0.026244
    119 C                     0.018656
    120 C                    -0.004385
    121 C                     0.011927
    122 C                    -0.007210
    123 C                    -0.003566
    124 C                     0.027506
    125 C                    -0.005416
    126 C                    -0.005873
    127 C                    -0.112816
    128 C                     0.022032
    129 C                     0.026863
    130 C                    -0.006105
    131 C                     0.016056
    132 C                    -0.010594
    133 C                    -0.082276
    134 C                    -0.001650
    135 C                    -0.017616
    136 C                    -0.026899
    137 C                    -0.002972
    138 C                     0.000361
    139 C                     0.020632
    140 C                    -0.036581
    141 C                     0.032520
    142 C                    -0.017384
    143 C                    -0.001167
    144 C                    -0.009125
    145 C                    -0.010183
    146 C                     0.000089
    147 C                    -0.015885
    148 C                     0.012276
    149 C                     0.019212
    150 C                    -0.006383
    151 C                    -0.024634
    152 C                    -0.007077
    153 C                    -0.029319
    154 C                     0.001668
    155 C                    -0.001405
    156 C                     0.055592
    157 C                     0.022587
    158 C                     0.036258
    159 C                    -0.001193
    160 C                     0.012223
    161 C                    -0.019308
    162 C                    -0.027234
    163 C                     0.002829
    164 C                    -0.034935
    165 C                     0.011944
    166 C                     0.028984
    167 C                    -0.005515
    168 C                     0.013347
    169 C                     0.045570
    170 C                     0.019846
    171 C                    -0.005308
    172 C                    -0.023349
    173 C                    -0.000958
    174 C                     0.026385
    175 C                     0.021102
    176 C                    -0.010397
  ----------------------------------------
  Sum of atomic charges =     0.000000

 -----------------------------------------------------------------
                    Cartesian Multipole Moments
 -----------------------------------------------------------------
    Charge (ESU x 10^10)
                 0.0000
    Dipole Moment (Debye)
         X       2.4901      Y      -1.4731      Z      -1.9673
       Tot       3.4987
    Quadrupole Moments (Debye-Ang)
        XX    -832.3894     XY      13.2737     YY    -801.3339
        XZ       2.3893     YZ      -4.4128     ZZ    -785.0709
    Octopole Moments (Debye-Ang^2)
       XXX      31.1305    XXY      87.4586    XYY     132.1472
       YYY    -100.1788    XXZ     -68.4836    XYZ     -43.7791
       YYZ     -54.2105    XZZ     -17.0076    YZZ     -30.4218
       ZZZ     -99.0890
    Hexadecapole Moments (Debye-Ang^3)
      XXXX -117808.6790   XXXY     457.4326   XXYY  -26670.3437
      XYYY    1531.3187   YYYY  -43538.9920   XXXZ     126.1085
      XXYZ      12.0202   XYYZ     -58.3549   YYYZ    -395.1129
      XXZZ  -23361.0139   XYZZ     521.1912   YYZZ  -10880.0540
      XZZZ     -25.7455   YZZZ     -35.4144   ZZZZ  -24104.9939
 -----------------------------------------------------------------
Archival summary:
1\1\mn251\SP\ProcedureUnspecified\6-31G**\428\afmv_a\FriOct1217:30:312018FriOct1217:30:312018\0\\#,ProcedureUnspecified,6-31G**,\\0,1\O\C,1,1.38555\O,2,1.22286,1,122.853\C,1,1.47021,2,117.338,3,-2.51898,0\H,4,1.09706,1,110.611,2,178.003,0\H,4,1.09721,1,108.657,2,63.1227,0\H,4,1.09736,1,105.117,2,-56.8081,0\C,2,1.58079,1,112.064,3,176.354,0\H,8,1.09676,2,100.23,1,-168.247,0\H,8,1.09699,2,106.528,1,79.1642,0\C,8,1.54948,2,114.069,1,-35.0995,0\H,11,1.09668,8,109.265,2,-11.5224,0\H,11,1.09678,8,108.582,2,-121.22,0\C,11,1.55391,8,113.843,2,113.75,0\H,14,1.09607,11,107.266,8,157.527,0\H,14,1.09719,11,109.28,8,52.3657,0\C,14,1.5242,11,117.073,8,-71.7855,0\C,17,1.49787,14,114.753,11,97.0854,0\C,18,1.37432,17,117.473,14,66.6878,0\H,19,1.08598,18,115.33,17,3.63024,0\C,19,1.38823,18,117.966,17,-163.316,0\H,21,1.08641,19,122.335,18,176.861,0\C,21,1.41711,19,119.431,18,-14.0153,0\H,23,1.08655,21,115.176,19,-173.558,0\C,23,1.3825,21,123.333,19,10.1993,0\H,25,1.08562,23,122.037,21,174.297,0\C,25,1.38764,23,114.945,21,-2.76939,0\H,27,1.08619,25,114.491,23,169.048,0\C,17,1.50722,14,119.312,11,-58.1629,0\C,29,1.40124,17,126.466,14,-3.70511,0\C,30,1.42297,29,113.158,17,149.93,0\C,31,1.42286,30,107.641,29,6.81125,0\C,32,1.41198,31,120.975,30,144.963,0\C,33,1.37358,32,120.03,31,-0.9836,0\C,34,1.39557,33,105.918,32,-143.398,0\C,35,1.37156,34,109.927,33,0.259518,0\C,36,1.35484,35,108.578,34,-0.153158,0\C,35,1.40161,34,118.529,33,144.204,0\C,34,1.40733,33,120.777,32,3.31493,0\C,39,1.38054,34,116.814,33,-140.81,0\C,39,1.39588,34,119.976,33,-3.88058,0\C,38,1.40898,35,121.245,34,-139.811,0\C,42,1.39777,38,118.325,35,-0.00714254,0\C,43,1.39871,42,119.525,38,139.557,0\C,44,1.39215,43,118.006,42,-4.06374,0\C,45,1.40073,44,123.553,43,6.31072,0\C,46,1.39362,45,118.62,44,-4.49305,0\C,38,1.41064,35,120.006,34,2.27425,0\C,45,1.41313,44,120.266,43,-138.725,0\C,48,1.41778,38,106.628,35,-143.11,0\C,50,1.40634,48,121.001,38,142.085,0\C,51,1.37543,50,118.183,48,-135.749,0\C,52,1.3897,51,123.024,50,-7.57627,0\C,51,1.40326,50,118.969,48,-3.52244,0\C,54,1.39904,51,120.447,50,2.23906,0\C,55,1.36326,54,119.328,51,-137.454,0\C,56,1.41106,55,124.79,54,-2.49931,0\C,54,1.41117,51,108.663,50,-140.304,0\C,57,1.41177,56,122.899,55,138.43,0\C,59,1.38482,57,105.343,56,-139.119,0\C,60,1.39481,59,112.565,57,0.566101,0\C,61,1.38443,60,123.748,59,141.039,0\C,62,1.40376,61,113.349,60,-1.41624,0\C,63,1.39735,62,124.635,61,-1.04959,0\C,64,1.36396,63,119.545,62,9.58928,0\C,64,1.37173,63,123.231,62,-144.583,0\C,66,1.37316,64,107.995,63,147.838,0\C,67,1.37425,66,119.271,64,-137.644,0\C,68,1.39156,67,120.658,66,133.598,0\C,66,1.4007,64,118.003,63,6.83908,0\C,70,1.37027,66,121.441,64,139.017,0\C,62,1.40604,61,125.238,60,-137.847,0\C,72,1.39227,62,114.813,61,0.168576,0\C,72,1.40478,62,108.471,61,139.134,0\C,74,1.39721,72,119.14,62,-137.495,0\C,71,1.41071,70,108.16,66,-141.021,0\C,76,1.389,71,125.41,70,141.21,0\C,77,1.38962,76,116.223,71,-3.73973,0\C,78,1.39428,77,105.01,76,-139.375,0\C,78,1.39897,77,121.2,76,0.504093,0\C,80,1.40286,78,119.3,77,-136.132,0\C,68,1.41265,67,121.079,66,-5.88026,0\C,58,1.41272,54,120.408,51,144.441,0\C,32,1.41914,31,105.862,30,0.128818,0\C,76,1.41914,71,106.238,70,-9.35922,0\C,85,1.38525,76,109.523,71,4.67593,0\C,86,1.42503,85,121.296,76,138.84,0\C,29,1.48026,17,62.0133,14,-108.759,0\C,12,2.47919,11,128.687,8,-99.0283,0\C,89,1.38522,12,108.511,11,-165.382,0\C,90,1.37562,89,111.303,12,-89.7955,0\C,91,1.36571,90,106.858,89,-8.14872,0\C,92,1.39463,91,109.05,90,10.9731,0\C,89,1.4034,12,107.72,11,-32.5492,0\C,94,1.3869,89,120.229,12,-123.213,0\C,95,1.38065,94,107.496,89,-144.897,0\C,96,1.36814,95,121.52,94,148.346,0\C,95,1.40089,94,119.36,89,2.12086,0\C,98,1.37862,95,121.534,94,-2.64765,0\C,99,1.39424,98,106.772,95,-146.833,0\C,96,1.40282,95,109.675,94,-1.93524,0\C,101,1.38967,96,114.136,95,137.204,0\C,102,1.3626,101,120.966,96,-134.655,0\C,101,1.39106,96,106.876,95,-0.197284,0\C,103,1.40451,102,111.938,101,150.106,0\C,105,1.38765,103,106.384,102,-0.467357,0\C,97,1.40879,96,121.949,95,-132.01,0\C,107,1.37965,97,118.049,96,-11.4919,0\C,107,1.39386,97,114.666,96,134.022,0\C,109,1.39587,107,123.003,97,-146.368,0\C,100,1.41005,99,112.419,98,2.76233,0\C,111,1.38116,100,119.433,99,126.862,0\C,112,1.37472,111,122.404,100,12.1305,0\C,113,1.37013,112,118.554,111,-9.39669,0\C,114,1.38568,113,119.46,112,-141.325,0\C,113,1.39601,112,106.735,111,-150.347,0\C,116,1.35126,113,110.43,112,-0.559901,0\C,117,1.39478,116,107.554,113,1.14803,0\C,118,1.37061,117,121.202,116,149.155,0\C,117,1.40104,116,120.165,113,145.832,0\C,120,1.4132,117,123.193,116,4.13704,0\C,105,1.41779,103,118.204,102,-141.031,0\C,122,1.39352,105,122.625,103,-1.14097,0\C,123,1.37834,122,108.796,105,140.537,0\C,124,1.37519,123,109.058,122,3.45239,0\C,124,1.39458,123,124.284,122,-145.975,0\C,122,1.39879,105,119.546,103,138.327,0\C,126,1.39979,124,121.081,123,138.537,0\C,128,1.40229,126,104.859,124,-141.441,0\C,129,1.38517,128,119.601,126,137.801,0\C,130,1.37784,129,126.356,128,-138.173,0\C,126,1.40439,124,113.799,123,1.93558,0\C,132,1.37272,126,106.44,124,144.629,0\C,123,1.40811,122,117.801,105,-2.80924,0\C,134,1.3694,123,121.001,122,1.83249,0\C,134,1.39797,123,118.918,122,142.393,0\C,136,1.34672,134,108.661,123,-145.486,0\C,131,1.41003,130,108.98,129,145.441,0\C,128,1.41104,126,121.734,124,4.55629,0\C,139,1.40116,128,115.05,126,-1.72245,0\C,140,1.3969,139,104.672,128,-143.835,0\C,141,1.42017,140,109.255,139,2.52603,0\C,142,1.40191,141,109.573,140,-1.92546,0\C,137,1.4215,136,109.462,134,-0.842237,0\C,127,1.42752,122,120.214,105,-2.46448,0\C,145,1.39738,127,119.682,122,2.96955,0\C,98,1.50261,95,120.762,94,-153.829,0\C,147,1.49384,98,114.312,95,12.7588,0\C,147,1.53372,98,130.516,95,-59.1238,0\C,149,1.52105,147,123.041,98,-5.54156,0\C,150,1.40965,149,115.836,147,-66.8988,0\H,151,1.08629,150,116.413,149,5.31715,0\C,150,1.41796,149,121.649,147,116.801,0\H,153,1.0859,150,122.457,149,-4.98198,0\C,153,1.3676,150,117.73,149,174.036,0\H,155,1.08599,153,113.696,150,172.516,0\C,155,1.41231,153,122.001,150,-7.57707,0\H,157,1.08611,155,117.228,153,-170.421,0\C,157,1.40934,155,120.125,153,7.62146,0\H,159,1.08603,157,116.159,155,-177.252,0\C,149,1.57404,147,121.494,98,-157.906,0\H,161,1.09635,149,104.295,147,-37.56,0\H,161,1.09756,149,108.38,147,-157.361,0\C,161,1.54504,149,110.092,147,80.0432,0\H,164,1.09666,161,106.824,149,75.6009,0\H,164,1.09704,161,106.616,149,-42.2224,0\C,164,1.54688,161,112.988,149,-162.351,0\H,167,1.09741,164,122.7,161,-45.7771,0\H,167,1.09745,164,111.182,161,-167.555,0\C,167,1.49844,164,106.928,161,73.7349,0\O,170,1.18946,167,124.91,164,-81.9796,0\O,170,1.29997,167,108.193,164,101.245,0\C,172,1.45071,170,120.735,167,-175.817,0\H,173,1.09625,172,115.699,170,161.747,0\H,173,1.09748,172,112.309,170,-63.6778,0\H,173,1.09761,172,107.053,170,45.4572,0\\\@

 Total job time:  907.36s(wall), 8717.85s(cpu) 
 Fri Oct 12 17:30:31 2018

        *************************************************************
        *                                                           *
        *  Thank you very much for using Q-Chem.  Have a nice day.  *
        *                                                           *
        *************************************************************


