
Running Job 1 of 1 ./9/6.qcin
qchem ./9/6.qcin_32498.0 /tmpu/cab_g/afmv_a/scratch_qchem/qchem32498/ 1
/tmpu/appuserlic/qchem4.4/serial-multicore/exe/qcprog.exe_s ./9/6.qcin_32498.0 /tmpu/cab_g/afmv_a/scratch_qchem/qchem32498/
Check license passed

                  Welcome to Q-Chem
     A Quantum Leap Into The Future Of Chemistry


 Q-Chem 4.4, Q-Chem, Inc., Pleasanton, CA (2016)

 Y. Shao,  Z. Gan,  E. Epifanovsky,  A. T. B. Gilbert,  M. Wormit,  
 J. Kussmann,  A. W. Lange,  A. Behn,  J. Deng,  X. Feng,  D. Ghosh,  
 M. Goldey,  P. R. Horn,  L. D. Jacobson,  I. Kaliman,  F. Rob,  
 R. Z. Khaliullin,  T. Kus,  A. Landau,  J. Liu,  E. I. Proynov,  Y. M. Rhee,  
 R. M. Richard,  M. A. Rohrdanz,  R. P. Steele,  E. J. Sundstrom,  
 H. L. Woodcock III,  P. M. Zimmerman,  D. Zuev,  B. Albrecht,  E. Alguire,  
 B. Austin,  S. A. Baeppler,  G. J. O. Beran,  Y. A. Bernard,  E. Berquist,  
 K. Brandhorst,  K. B. Bravaya,  S. T. Brown,  D. Casanova,  C.-M. Chang,  
 Y. Chen,  S. H. Chien,  K. D. Closser,  M. P. Coons,  D. L. Crittenden,  
 S. Dasgupta,  M. Diedenhofen,  R. A. DiStasio Jr.,  H. Do,  A. D. Dutoi,  
 R. G. Edgar,  P.-T. Fang,  S. Fatehi,  Q. Feng,  L. Fusti-Molnar,  
 A. Ghysels,  A. Golubeva-Zadorozhnaya,  J. Gomes,  A. Gunina,  
 M. W. D. Hanson-Heine,  P. H. P. Harbach,  A. W. Hauser,  J. E. Herr,  
 E. G. Hohenstein,  Z. C. Holden,  K. Hui,  T.-C. Jagau,  H. Ji,  B. Kaduk,  
 K. Khistyaev,  Jaehoon Kim,  Jihan Kim,  R. A. King,  P. Klunzinger,  
 K. Koh,  D. Kosenkov,  T. Kowalczyk,  C. M. Krauter,  A. Kunitsa,  
 K. U. Lao,  A. Laurent,  K. V. Lawler,  J. Lee,  D. Lefrancois,  S. Lehtola,  
 S. V. Levchenko,  C. Y. Lin,  Y.-S. Lin,  F. Liu,  E. Livshits,  
 R. C. Lochan,  A. Luenser,  P. Manohar,  S. F. Manzer,  S.-P. Mao,  Y. Mao,  
 N. Mardirossian,  A. V. Marenich,  L. A. Martinez-Martinez,  S. A. Maurer,  
 N. J. Mayhall,  J.-M. Mewes,  A. F. Morrison,  K. Nanda,  T. S. Nguyen-Beck,  
 C. M. Oana,  R. Olivares-Amaya,  D. P. O'Neill,  J. A. Parkhill,  
 T. M. Perrine,  R. Peverati,  P. A. Pieniazek,  F. Plasser,  A. Prociuk,  
 D. R. Rehn,  E. Rosta,  N. J. Russ,  N. Sergueev,  S. M. Sharada,  
 S. Sharma,  D. W. Small,  A. Sodt,  T. Stauch,  T. Stein,  D. Stuck,  
 Y.-C. Su,  A. J. W. Thom,  T. Tsuchimochi,  L. Vogt,  O. Vydrov,  T. Wang,  
 M. A. Watson,  J. Wenzel,  A. White,  C. F. Williams,  V. Vanovschi,  
 K. Yao,  S. Yeganeh,  S. R. Yost,  Z.-Q. You,  I. Y. Zhang,  X. Zhang,  
 Y. Zhao,  B. R. Brooks,  G. K. L. Chan,  D. M. Chipman,  C. J. Cramer,  
 W. A. Goddard III,  M. S. Gordon,  W. J. Hehre,  A. Klamt,  
 H. F. Schaefer III,  M. W. Schmidt,  C. D. Sherrill,  D. G. Truhlar,  
 A. Warshel,  X. Xu,  A. Aspuru-Guzik,  R. Baer,  A. T. Bell,  N. A. Besley,  
 J.-D. Chai,  A. Dreuw,  B. D. Dunietz,  T. R. Furlani,  S. R. Gwaltney,  
 C.-P. Hsu,  Y. Jung,  J. Kong,  D. S. Lambrecht,  W. Liang,  C. Ochsenfeld,  
 V. A. Rassolov,  L. V. Slipchenko,  J. E. Subotnik,  T. Van Voorhis,  
 J. M. Herbert,  A. I. Krylov,  P. M. W. Gill,  M. Head-Gordon

 Contributors to earlier versions of Q-Chem not listed above: 
 R. D. Adamson,  J. Baker,  E. F. C. Byrd,  A. K. Chakraborty,  C.-L. Cheng,  
 H. Dachsel,  R. J. Doerksen,  G. Hawkins,  A. Heyden,  S. Hirata,  
 G. Kedziora,  F. J. Keil,  C. Kelley,  P. P. Korambath,  W. Kurlancheek,  
 A. M. Lee,  M. S. Lee,  D. Liotard,  I. Lotan,  P. E. Maslen,  N. Nair,  
 D. Neuhauser,  R. Olson,  B. Peters,  J. Ritchie,  N. E. Schultz,  
 N. Shenvi,  A. C. Simmonett,  K. S. Thanthiriwatte,  Q. Wu,  W. Zhang

 Please cite Q-Chem as follows:
 Y. Shao et al., Mol. Phys. 113, 184-215 (2015)
 DOI: 10.1080/00268976.2014.952696

 Q-Chem 4.4.2 for Intel X86 Linux

 Parts of Q-Chem use Armadillo 5.200.1 (Boston Tea Smuggler).
 http://arma.sourceforge.net/

 Q-Chem begins on Fri Oct 12 17:30:32 2018  

Host: 
0

     Scratch files written to /tmpu/cab_g/afmv_a/scratch_qchem/qchem32498//
 Dec716 11556_ 22328  22283 4050   
Processing $rem in /tmpu/appuserlic/qchem4.4/serial-multicore/config/preferences.
 MEM_TOTAL  2000 
FILE_GEOM_ORG=        593

Checking the input file for inconsistencies... 	...done.

--------------------------------------------------------------
User input:
--------------------------------------------------------------
$comment
SP
$end

$rem
MEM_STATIC 5000
MEM_TOTAL 20000
JOBTYPE SP
EXCHANGE B3LYP
BASIS 6-31g(d,p)
$end

$molecule
0 1
O          16.060000     15.307000      0.114000
C          17.360000     15.914000      0.310000
H          17.896000     15.947000     -0.647000
H          17.814000     15.390000      1.160000
H          17.209000     16.983000      0.501000
O          15.137000     17.131000     -1.027000
C          15.141000     15.973000     -0.552000
C          13.911000     15.054000     -0.793000
H          13.221000     15.691000     -1.359000
H          13.348000     15.078000      0.149000
C          14.210000     13.725000     -1.479000
H          13.319000     13.392000     -2.024000
H          15.030000     13.800000     -2.205000
C          14.479000     12.645000     -0.388000
H          14.887000     13.052000      0.545000
H          13.464000     12.308000     -0.142000
C          15.406000     11.553000     -0.952000
C          16.860000     11.933000     -0.699000
C          17.519000     12.717000     -1.640000
H          16.907000     13.056000     -2.471000
C          18.808000     13.182000     -1.313000
H          19.349000     13.834000     -1.992000
C          19.411000     12.908000     -0.117000
H          20.306000     13.452000      0.169000
C          18.758000     12.034000      0.738000
H          19.294000     11.873000      1.668000
C          17.464000     11.628000      0.524000
H          16.834000     11.139000      1.262000
C          17.076000      8.300000     -5.167000
C          17.777000      7.044000     -3.144000
C          14.492000      3.819000     -3.521000
C          12.177000      9.506000     -4.808000
C          12.334000      5.174000     -1.042000
C          17.526000      8.218000     -3.822000
C          10.799000      7.506000     -3.404000
C          15.893000      4.905000     -5.262000
C          15.343000      7.822000     -0.087000
C          11.808000      9.680000     -3.454000
C          15.052000     10.043000     -0.944000
C          14.006000      8.186000      0.013000
C          11.661000      8.653000     -1.445000
C          10.921000      6.305000     -2.721000
C          17.038000      8.525000     -1.612000
C          12.300000      4.452000     -3.374000
C          15.116000     10.816000     -2.226000
C          13.929000     10.910000     -3.110000
C          12.788000      4.286000     -2.076000
C          13.201000      6.724000     -6.474000
C          13.427000      4.750000     -5.567000
C          14.722000      5.179000     -5.960000
C          16.833000      5.930000     -5.089000
C          14.286000     10.653000     -4.475000
C          16.045000      8.880000     -0.686000
C          17.329000      5.875000     -3.769000
C          11.163000      8.680000     -2.763000
C          17.413000      7.198000     -1.794000
C          12.985000      7.128000     -0.015000
C          13.793000      9.054000     -6.224000
C          15.735000      4.238000     -4.014000
C          13.801000      9.452000     -0.569000
C          15.551000      7.431000     -6.491000
C          11.803000      7.414000     -0.794000
C          15.694000      6.474000     -0.293000
C          11.430000      6.050000     -4.939000
C          11.080000      7.347000     -4.714000
C          14.765000      5.436000     -0.386000
C          13.370000     10.030000     -5.291000
C          12.759000     10.272000     -2.591000
C          12.836000      8.063000     -6.307000
C          16.157000     10.218000     -3.230000
C          16.468000      4.882000     -1.743000
C          12.648000      9.624000     -1.348000
C          13.364000      5.756000     -0.239000
C          15.195000      8.724000     -6.280000
C          14.189000      3.922000     -2.167000
C          16.707000      7.156000     -5.751000
C          13.304000      4.043000     -4.314000
C          16.755000      6.113000     -1.145000
C          15.150000      4.530000     -1.339000
C          17.121000      9.183000     -2.873000
C          15.638000     10.257000     -4.539000
C          12.459000      5.726000     -5.874000
C          16.689000      4.783000     -3.116000
C          11.450000      6.215000     -1.405000
C          11.797000      8.335000     -5.405000
C          11.321000      5.417000     -3.706000
C          16.155000      9.356000     -5.463000
C          14.550000      6.395000     -6.599000
O          17.371000     -1.124000    -10.240000
C          16.492000      0.026000    -10.143000
H          17.109000      0.877000     -9.827000
H          15.702000     -0.042000     -9.386000
H          16.159000      0.380000    -11.127000
O          18.942000     -0.096000    -11.437000
C          18.527000     -1.029000    -10.827000
C          19.237000     -2.340000    -10.677000
H          19.526000     -2.601000    -11.703000
H          18.501000     -3.116000    -10.431000
C          20.268000     -2.166000     -9.537000
H          19.795000     -1.644000     -8.696000
H          20.654000     -3.139000     -9.210000
C          21.490000     -1.317000     -9.953000
H          22.194000     -1.890000    -10.570000
H          21.151000     -0.401000    -10.451000
C          22.253000     -0.805000     -8.675000
C          23.056000     -1.935000     -8.049000
C          22.370000     -2.727000     -7.106000
H          21.365000     -2.407000     -6.846000
C          22.961000     -3.986000     -6.734000
H          22.463000     -4.767000     -6.167000
C          24.283000     -4.259000     -7.139000
H          24.790000     -5.188000     -6.895000
C          24.989000     -3.326000     -7.930000
H          26.042000     -3.410000     -8.182000
C          24.385000     -2.217000     -8.455000
H          24.920000     -1.598000     -9.169000
C          22.444000      2.570000     -4.342000
C          24.807000      2.497000     -5.086000
C          24.619000      6.737000     -6.836000
C          19.281000      3.699000     -8.067000
C          24.181000      5.790000    -10.181000
C          23.528000      1.901000     -4.931000
C          20.483000      5.518000     -9.909000
C          23.726000      5.845000     -4.775000
C          24.846000      1.909000     -9.108000
C          19.802000      3.250000     -9.252000
C          22.935000      0.571000     -8.787000
C          23.994000      2.288000    -10.144000
C          21.563000      3.480000    -10.644000
C          21.721000      6.188000    -10.097000
C          24.410000      1.156000     -6.841000
C          23.238000      7.308000     -8.508000
C          21.759000      0.410000     -7.880000
C          20.489000      1.201000     -8.174000
C          24.368000      6.659000     -9.064000
C          20.368000      6.208000     -5.919000
C          22.281000      7.263000     -6.319000
C          22.475000      6.525000     -5.140000
C          23.752000      4.612000     -4.234000
C          20.012000      1.660000     -6.929000
C          24.289000      0.993000     -8.194000
C          24.859000      3.889000     -4.756000
C          20.496000      4.110000    -10.105000
C          25.338000      2.054000     -6.293000
C          24.008000      3.563000    -10.712000
C          19.572000      3.876000     -5.829000
C          24.791000      5.962000     -5.673000
C          22.782000      1.524000     -9.942000
C          21.330000      4.562000     -4.318000
C          22.741000      4.191000    -10.908000
C          25.727000      2.854000     -8.624000
C          20.785000      6.953000     -8.241000
C          19.866000      5.990000     -8.742000
C          25.734000      4.182000     -9.150000
C          19.382000      2.943000     -6.869000
C          20.478000      2.053000     -9.261000
C          19.600000      5.145000     -6.365000
C          22.016000      0.815000     -6.456000
C          26.001000      4.265000     -6.932000
C          21.596000      2.187000    -10.122000
C          24.892000      4.589000    -10.250000
C          20.448000      3.602000     -4.725000
C          25.211000      6.283000     -8.013000
C          22.525000      3.951000     -3.939000
C          23.405000      7.313000     -7.143000
C          25.887000      2.937000     -7.215000
C          25.919000      5.057000     -8.089000
C          23.321000      1.042000     -6.000000
C          20.935000      1.467000     -5.902000
C          21.005000      7.041000     -6.850000
C          25.485000      4.782000     -5.708000
C          22.862000      5.586000    -10.717000
C          19.334000      5.051000     -7.768000
C          21.936000      7.066000     -9.032000
C          21.159000      2.430000     -4.840000
C          21.284000      5.896000     -4.875000
$end

--------------------------------------------------------------
 ----------------------------------------------------------------
             Standard Nuclear Orientation (Angstroms)
    I     Atom           X                Y                Z
 ----------------------------------------------------------------
    1      O      10.1419922385     4.8909771071    -0.1098079063
    2      C       9.8302471322     6.2885182442    -0.3255826932
    3      H       9.0768269691     6.6117858693     0.4038623700
    4      H       9.6161530054     6.3893231388    -1.3966541559
    5      H      10.6958869613     6.8813689641    -0.0074023824
    6      O      11.3376897282     5.2374421343     1.8728810501
    7      C      10.8164082372     4.5486871856     0.9670735497
    8      C      10.8647394889     2.9989618750     1.0745796036
    9      H      11.4278881562     2.8227143703     1.9987145480
   10      H      11.6640714342     2.6901774281     0.3885551093
   11      C       9.5107959313     2.2973240873     1.0466644172
   12      H       9.5853663165     1.3479164075     1.5896739154
   13      H       8.7193681385     2.8882755881     1.5257462189
   14      C       9.1663497609     1.9270310248    -0.4275410920
   15      H       9.6150387116     2.5999191370    -1.1681501752
   16      H       9.6841862744     0.9674181271    -0.5512279213
   17      C       7.6386072383     1.8673874189    -0.6073588471
   18      C       7.1144254794     3.2422097553    -1.0043752538
   19      C       6.7742498772     4.1428559535    -0.0006148315
   20      H       6.9750860854     3.8054432700     1.0122244936
   21      C       6.4396399242     5.4551711594    -0.3886096505
   22      H       6.2095125710     6.2101500649     0.3569601005
   23      C       6.4567538921     5.8673876586    -1.6920227354
   24      H       6.3935589178     6.9270362008    -1.9198568026
   25      C       6.6954098117     4.9040951242    -2.6597111384
   26      H       6.7011519756     5.3089827067    -3.6667613223
   27      C       7.1237272097     3.6382264977    -2.3447685608
   28      H       7.5400274218     2.9268549807    -3.0528008328
   29      C       2.5659140754     0.5846143068     1.3315612694
   30      C       2.2819066890     0.5308907180    -1.1337824349
   31      C       2.0425724749    -4.0737684840    -1.4054656474
   32      C       6.4905794795    -2.3184290395     2.6555170073
   33      C       5.3850759819    -4.5698894396    -2.5099855900
   34      C       2.8688850232     1.0203421092     0.0137604927
   35      C       6.7072159216    -4.4949201822     0.8987999107
   36      C       1.0691451764    -2.5036496605     0.2559928006
   37      C       5.6938131845    -0.4820278692    -2.9248097943
   38      C       7.4605923115    -2.3386711526     1.6267223911
   39      C       6.8915206211     0.6299256541    -1.1695242738
   40      C       6.7881697245    -1.2516918854    -2.5505557822
   41      C       7.8332463592    -2.8902200825    -0.5341435786
   42      C       6.1838888405    -5.0990356888    -0.2347552141
   43      C       4.3972347720     1.0887763943    -1.6821041227
   44      C       3.8520130191    -5.3142135006    -0.7617397136
   45      C       6.7471769970     1.0348250095     0.2658747753
   46      C       7.1167016972     0.0980309968     1.3545112958
   47      C       4.0560654165    -4.9087388168    -2.0825186125
   48      C       3.3061594588    -3.5102690743     2.7069219011
   49      C       2.3295557565    -4.5074432915     1.0269547022
   50      C       1.6312040278    -3.2923778870     1.2537496007
   51      C       1.2335101996    -1.1132981977     0.3197183771
   52      C       6.0957247968     0.0546620379     2.3607161965
   53      C       5.6629147755     0.6645855898    -2.1153087974
   54      C       1.5140348537    -0.6280627702    -0.9753852861
   55      C       7.5369544968    -3.3947366505     0.7478592158
   56      C       3.2341994547     0.5011603890    -2.1686575945
   57      C       6.7199081078    -2.7088446884    -2.7366607532
   58      C       4.5538764583    -1.5374205007     3.3337670131
   59      C       1.3226891248    -2.9155050037    -1.0832038401
   60      C       7.4509483329    -0.6577652642    -1.4590061110
   61      C       2.3190057905    -1.2751623855     2.4778722889
   62      C       7.2584320445    -3.5070634407    -1.6602780178
   63      C       4.5207234919    -1.1039617969    -3.3936378679
   64      C       4.6722836113    -5.1190160668     1.4852100227
   65      C       5.8210147564    -4.5270006594     1.9156383137
   66      C       4.3787851980    -2.4855742403    -3.5355342277
   67      C       5.8730467525    -1.1295732863     3.0248262669
   68      C       7.6641061360    -1.1426546778     0.9002509771
   69      C       4.4637614125    -2.9089987060     3.2093825075
   70      C       5.2602034304     1.3308479142     0.6539225197
   71      C       2.3514097499    -1.6976196008    -2.9721069665
   72      C       7.8988363235    -1.5071959144    -0.4373907634
   73      C       5.5059718211    -3.3269158963    -3.2062857886
   74      C       3.4622784965    -0.6917979181     2.9202741626
   75      C       2.9269302806    -4.0895354149    -2.4794287173
   76      C       1.7851064265    -0.4938668954     1.4463249917
   77      C       2.5385139749    -4.9178872890    -0.3415697542
   78      C       3.2444150690    -0.6239470060    -3.0435398671
   79      C       3.1182086886    -2.8794812776    -3.1707683989
   80      C       4.1775380223     1.4365296572    -0.3180018515
   81      C       4.9885995761     0.8190891887     1.9379386228
   82      C       3.4002998971    -4.6485871027     1.9310754961
   83      C       1.5106760514    -1.7435722903    -1.8608796277
   84      C       6.4200335502    -4.6116786782    -1.5487247039
   85      C       5.6931061448    -3.4240165281     2.7728310535
   86      C       4.9107151796    -5.4734993439     0.1622017107
   87      C       3.6643785224     0.5317088772     2.2489324453
   88      C       2.2151914873    -2.7117549268     2.3665823038
   89      O      -6.0205772279    -5.7982907976     1.7375409798
   90      C      -4.7035648122    -5.7160150545     2.3402506933
   91      H      -4.3868451808    -4.6668392291     2.2797134119
   92      H      -3.9114222607    -6.2763227242     1.8300169297
   93      H      -4.7347285805    -5.8488410066     3.4292167561
   94      O      -6.8800447414    -4.0769961226     2.8582970796
   95      C      -6.9388415885    -4.9243865382     2.0256588543
   96      C      -8.1403180345    -5.2112862879     1.1774466853
   97      H      -8.9637351202    -5.2717687538     1.9003880206
   98      H      -8.0734509765    -6.2411632192     0.8042573195
   99      C      -8.1234243254    -4.1927548597     0.0133395887
  100      H      -7.1074498132    -4.1244663381    -0.3948594663
  101      H      -8.8283056701    -4.4890536487    -0.7727922816
  102      C      -8.5192389393    -2.7658519773     0.4542703718
  103      H      -9.6037343512    -2.6671589351     0.5912498780
  104      H      -7.9595239209    -2.4891887843     1.3554682279
  105      C      -8.0581243579    -1.7184951374    -0.6264765888
  106      C      -8.9775846411    -1.7665768312    -1.8372060955
  107      C      -8.6251437577    -2.6926267825    -2.8398655149
  108      H      -7.6863207742    -3.2211803660    -2.7010580403
  109      C      -9.6169146850    -3.0121541205    -3.8333637324
  110      H      -9.5479827737    -3.8295961072    -4.5450455363
  111      C     -10.7866617966    -2.2287582852    -3.8983303395
  112      H     -11.5759523485    -2.4140684573    -4.6210381399
  113      C     -10.9898841531    -1.1803701518    -2.9741068841
  114      H     -11.8031496715    -0.4629600730    -3.0314739074
  115      C     -10.1578252005    -0.9837595133    -1.9067062300
  116      H     -10.4218034367    -0.2583509893    -1.1429785533
  117      C      -3.9859089392     1.0674380928    -3.0467312490
  118      C      -5.8205571902     2.7320246093    -2.9702359949
  119      C      -3.8113307385     5.1211899325     0.3958213612
  120      C      -3.0799646697    -1.0142793765     1.4254664611
  121      C      -5.7164763994     3.8151552287     3.0306593758
  122      C      -5.3502565928     1.3958377169    -3.0624527872
  123      C      -3.5102615623     0.8645754742     3.5305265634
  124      C      -2.8734289839     4.0960448131    -1.5816142972
  125      C      -8.1034425230     1.9444592653     0.2996148252
  126      C      -4.2394899341    -1.0368608998     2.1550267643
  127      C      -7.6453232596    -0.3296080129    -0.1052935035
  128      C      -7.8267487613     1.4282486875     1.5644500721
  129      C      -5.8167715963     0.2947779324     3.0664024161
  130      C      -3.9236658794     2.2135747488     3.6923469199
  131      C      -7.2585639100     1.3778145142    -1.9052633698
  132      C      -3.3871754853     4.2574399696     2.4213618626
  133      C      -6.6073213026    -1.2261032234    -0.6972346111
  134      C      -5.4649125807    -1.7137611978     0.1871346626
  135      C      -4.7512991623     4.6371898903     2.3745260692
  136      C      -1.1307663477     1.6564908232     0.3492850441
  137      C      -1.8082248039     3.7416923511     0.7036557935
  138      C      -1.8468798234     3.5437558682    -0.6861815848
  139      C      -3.4252233377     3.3830264822    -2.5820011479
  140      C      -4.2977063965    -1.6448184430    -0.6009716880
  141      C      -7.9225380948     1.0334745649    -0.7596686417
  142      C      -4.8067835347     3.7015174375    -2.6845532488
  143      C      -4.5111496075    -0.0512348700     3.1055988821
  144      C      -6.9926330468     2.7184791309    -2.2211607608
  145      C      -7.2850804335     2.1956373621     2.5969979135
  146      C      -2.0963180353    -0.4352587350    -0.5294832557
  147      C      -3.8677547936     4.8810515225    -0.9905147705
  148      C      -7.4827976485     0.0401359040     1.3447126557
  149      C      -2.0209585449     1.5041996798    -1.9706990635
  150      C      -6.2029552700     1.6162820559     3.3259982974
  151      C      -7.8087533833     3.2726563602     0.0705017786
  152      C      -1.9949362715     2.1975723303     2.6034010894
  153      C      -2.2859533426     0.8271273579     2.8485961991
  154      C      -7.2092358015     4.0733619899     1.0901871045
  155      C      -3.0645869854    -1.2922573434     0.0328312696
  156      C      -5.4217147237    -1.2937177369     1.5021599233
  157      C      -1.5520398175     0.3423951460     0.4692442662
  158      C      -5.8380714143    -0.6154044547    -1.8344028586
  159      C      -6.2804961083     4.5716193258    -0.8813311454
  160      C      -6.4201290088    -0.4535394907     2.0557576381
  161      C      -6.9506720055     3.5757266606     2.4206444854
  162      C      -2.2885945092     0.1740250870    -1.8152013360
  163      C      -5.0135677710     5.1501381817     1.0998789701
  164      C      -2.9626716312     2.0598457674    -2.8363900525
  165      C      -2.8467400376     4.5365190874     1.1879992343
  166      C      -7.1935307255     3.6013266457    -1.1669338459
  167      C      -6.2652141819     4.8916129437     0.4861510473
  168      C      -6.2743786635     0.5702970604    -2.4395787846
  169      C      -4.5028167407    -0.9562706747    -1.7958518986
  170      C      -1.4214940308     2.5730078239     1.3700166453
  171      C      -5.0622358384     4.6459275792    -1.6175656177
  172      C      -5.2943674571     2.6248608990     3.7189154688
  173      C      -2.1069146249    -0.0731045938     1.7212326505
  174      C      -2.9941289204     3.0569500628     3.0791478320
  175      C      -3.5257614721    -0.0518058159    -2.3726493686
  176      C      -1.3998222038     2.2651606540    -0.9090734038
 ----------------------------------------------------------------
 Molecular Point Group                 C1    NOp =  1
 Largest Abelian Subgroup              C1    NOp =  1
 Nuclear Repulsion Energy = 34131.8449684905 hartrees
 There are      462 alpha and      462 beta electrons
 Requested basis set is 6-31G(d,p)
 There are 676 shells and 2360 basis functions

 Total QAlloc Memory Limit  20000 MB
 Mega-Array Size      4888 MB
 MEM_STATIC part      5000 MB
 A cutoff of  1.0D-08 yielded  37351 shell pairs
 There are    525580 function pairs
 
 -------------------------------------------------------
 OpenMP Integral Computing Module                       
 Release: version 1.0, May 2013, Q-Chem Inc. Pittsburgh 
 -------------------------------------------------------
 Integral Job Info:
 Integral job number is                      11
 Integral operator is                         1
 short-range coefficients                     0
 long-range coefficients              100000000
 Omega coefficients                           0
 if combine SR and LR in K                    0
 Integral screening is                        0
 Integral computing path is                   2
 max size of driver memory is            800000
 size of driver memory is                593474
 size of scratch memory is              2260544
 max col of scratch BK array               1296
 max len of scratch array in speh3          155
 max len of scratch index in speh4           18
 max int batch size is                      520
 min int batch size is                       52
 fixed nKL is                                52
 max L of basis functions is                  2
 order of int derivative is                   0
 number of shells is                        676
 number of basis is                        2360
 number of cartesian basis is              2360
 number of contracted shell pairs         37351
 number of primitive shell pairs         113403
 maxK2 (contraction) of shell pair           36
 max number of K2 of shell pair               1
 max number of CS2 of shell pair           7169
 max number of PS2 of shell pair          34446
 mem total for path MDJ                 1497384
 -------------------------------------------------------
 Smallest overlap matrix eigenvalue = 2.45E-04

 Scale SEOQF with 1.000000e-02/1.000000e-02/1.000000e-01

 Standard Electronic Orientation quadrupole field applied
 Nucleus-field energy     =    -0.0000002150 hartrees
 Guess from superposition of atomic densities
 Warning:  Energy on first SCF cycle will be non-variational
 A restricted hybrid HF-DFT SCF calculation will be
 performed using Pulay DIIS extrapolation
 Exchange:     0.2000 Hartree-Fock + 0.0800 Slater + 0.7200 B88
 Correlation:  0.1900 VWN1RPA + 0.8100 LYP
 Using SG-1 standard quadrature grid
 SCF converges when DIIS error is below 1.0E-05
 using 16 threads for integral computing 
 -------------------------------------------------------
 OpenMP BLAS3 based DFT computing Module                
 Release: version 1.0, May 2013, Q-Chem Inc. Pittsburgh 
 -------------------------------------------------------
 ---------------------------------------
  Cycle       Energy         DIIS Error
 ---------------------------------------
    1   -5858.5875541582      1.83E-02
    2   -5803.0649184186      1.29E-03
    3   -5802.2559087780      1.80E-03
    4   -5803.8995627551      6.71E-04
    5   -5804.1558387250      2.92E-04
    6   -5804.2089584573      1.32E-04
    7   -5804.2197545440      5.34E-05
    8   -5804.2209212008      3.66E-05
    9   -5804.2219870907      9.04E-06 Convergence criterion met
 ---------------------------------------
 SCF time:  CPU 8226.04 s  wall 848.68 s
 SCF   energy in the final basis set = -5804.2219870907
 Total energy in the final basis set = -5804.2219870907
 
 --------------------------------------------------------------
 
                    Orbital Energies (a.u.)
 --------------------------------------------------------------
 
 Alpha MOs
 -- Occupied --
-19.209 -19.199 -19.133 -19.131 -10.319 -10.308 -10.251 -10.250
-10.241 -10.239 -10.237 -10.236 -10.236 -10.233 -10.229 -10.228
-10.228 -10.226 -10.225 -10.224 -10.224 -10.224 -10.224 -10.223
-10.222 -10.222 -10.221 -10.221 -10.221 -10.220 -10.220 -10.220
-10.220 -10.220 -10.220 -10.220 -10.220 -10.220 -10.219 -10.219
-10.219 -10.218 -10.218 -10.218 -10.218 -10.218 -10.218 -10.217
-10.217 -10.217 -10.217 -10.216 -10.216 -10.216 -10.216 -10.216
-10.215 -10.215 -10.215 -10.215 -10.215 -10.215 -10.214 -10.214
-10.214 -10.214 -10.214 -10.214 -10.214 -10.214 -10.214 -10.214
-10.213 -10.213 -10.213 -10.213 -10.213 -10.213 -10.213 -10.213
-10.213 -10.213 -10.212 -10.212 -10.212 -10.212 -10.212 -10.212
-10.212 -10.211 -10.211 -10.211 -10.211 -10.211 -10.211 -10.211
-10.210 -10.210 -10.210 -10.210 -10.210 -10.210 -10.209 -10.209
-10.209 -10.209 -10.209 -10.209 -10.209 -10.209 -10.208 -10.208
-10.208 -10.208 -10.208 -10.208 -10.208 -10.208 -10.208 -10.207
-10.207 -10.207 -10.206 -10.206 -10.206 -10.206 -10.206 -10.206
-10.205 -10.205 -10.204 -10.204 -10.204 -10.202 -10.202 -10.201
-10.200 -10.199 -10.199 -10.198 -10.198 -10.198 -10.197 -10.196
-10.196 -10.195 -10.194 -10.194  -1.119  -1.109  -1.026  -1.001
 -0.984  -0.981  -0.968  -0.963  -0.962  -0.961  -0.960  -0.958
 -0.933  -0.930  -0.928  -0.926  -0.926  -0.923  -0.922  -0.920
 -0.919  -0.918  -0.899  -0.896  -0.890  -0.888  -0.884  -0.884
 -0.878  -0.870  -0.861  -0.849  -0.840  -0.839  -0.838  -0.838
 -0.837  -0.835  -0.817  -0.817  -0.806  -0.805  -0.799  -0.797
 -0.795  -0.795  -0.794  -0.792  -0.789  -0.786  -0.785  -0.780
 -0.775  -0.770  -0.769  -0.766  -0.766  -0.762  -0.762  -0.761
 -0.755  -0.750  -0.750  -0.745  -0.732  -0.730  -0.719  -0.716
 -0.714  -0.713  -0.713  -0.711  -0.710  -0.709  -0.709  -0.707
 -0.706  -0.705  -0.705  -0.703  -0.703  -0.702  -0.672  -0.668
 -0.659  -0.656  -0.655  -0.655  -0.645  -0.645  -0.632  -0.631
 -0.629  -0.626  -0.625  -0.623  -0.622  -0.621  -0.620  -0.616
 -0.613  -0.612  -0.610  -0.610  -0.609  -0.608  -0.607  -0.607
 -0.605  -0.603  -0.603  -0.601  -0.577  -0.575  -0.564  -0.561
 -0.560  -0.559  -0.558  -0.558  -0.556  -0.554  -0.552  -0.552
 -0.538  -0.533  -0.532  -0.529  -0.528  -0.526  -0.525  -0.524
 -0.522  -0.520  -0.519  -0.518  -0.517  -0.517  -0.514  -0.513
 -0.511  -0.508  -0.504  -0.501  -0.490  -0.489  -0.488  -0.487
 -0.484  -0.483  -0.483  -0.481  -0.480  -0.478  -0.477  -0.475
 -0.475  -0.473  -0.470  -0.469  -0.468  -0.467  -0.467  -0.465
 -0.464  -0.464  -0.463  -0.462  -0.460  -0.459  -0.458  -0.455
 -0.455  -0.452  -0.451  -0.451  -0.449  -0.446  -0.445  -0.442
 -0.442  -0.440  -0.439  -0.438  -0.437  -0.434  -0.432  -0.431
 -0.431  -0.429  -0.428  -0.427  -0.427  -0.426  -0.425  -0.424
 -0.423  -0.421  -0.420  -0.420  -0.420  -0.419  -0.419  -0.418
 -0.417  -0.416  -0.415  -0.414  -0.413  -0.413  -0.412  -0.412
 -0.412  -0.410  -0.407  -0.407  -0.402  -0.401  -0.397  -0.395
 -0.392  -0.392  -0.389  -0.389  -0.389  -0.388  -0.386  -0.383
 -0.382  -0.375  -0.374  -0.373  -0.372  -0.372  -0.369  -0.367
 -0.366  -0.363  -0.361  -0.361  -0.360  -0.360  -0.359  -0.358
 -0.357  -0.356  -0.355  -0.354  -0.354  -0.353  -0.353  -0.350
 -0.349  -0.348  -0.347  -0.345  -0.345  -0.344  -0.343  -0.342
 -0.342  -0.341  -0.341  -0.339  -0.337  -0.337  -0.335  -0.332
 -0.331  -0.329  -0.329  -0.328  -0.327  -0.324  -0.322  -0.318
 -0.307  -0.307  -0.303  -0.302  -0.285  -0.284  -0.272  -0.271
 -0.268  -0.268  -0.267  -0.267  -0.266  -0.263  -0.262  -0.261
 -0.261  -0.260  -0.259  -0.259  -0.258  -0.256  -0.254  -0.252
 -0.251  -0.244  -0.241  -0.240  -0.221  -0.217  -0.215  -0.209
 -0.209  -0.208  -0.206  -0.204  -0.199  -0.197
 -- Virtual --
 -0.123  -0.122  -0.121  -0.117  -0.110  -0.107  -0.081  -0.080
 -0.075  -0.070  -0.061  -0.058  -0.054  -0.048  -0.024  -0.021
 -0.020  -0.019  -0.018  -0.016  -0.015  -0.013  -0.012  -0.011
 -0.011  -0.010  -0.009  -0.006  -0.006  -0.004   0.004   0.009
  0.016   0.023   0.033   0.036   0.043   0.045   0.046   0.048
  0.049   0.051   0.054   0.058   0.062   0.063   0.066   0.067
  0.069   0.071   0.075   0.080   0.084   0.086   0.090   0.092
  0.093   0.096   0.099   0.101   0.102   0.102   0.103   0.104
  0.106   0.110   0.112   0.113   0.113   0.115   0.116   0.118
  0.121   0.122   0.127   0.127   0.127   0.128   0.130   0.135
  0.138   0.139   0.141   0.144   0.146   0.153   0.153   0.154
  0.157   0.159   0.161   0.163   0.164   0.166   0.166   0.169
  0.171   0.172   0.177   0.178   0.179   0.180   0.182   0.184
  0.185   0.185   0.187   0.187   0.190   0.191   0.194   0.195
  0.195   0.196   0.199   0.202   0.204   0.205   0.205   0.208
  0.209   0.212   0.215   0.216   0.217   0.217   0.220   0.221
  0.222   0.223   0.226   0.227   0.227   0.229   0.229   0.231
  0.232   0.234   0.235   0.236   0.238   0.238   0.240   0.240
  0.242   0.244   0.246   0.248   0.251   0.255   0.258   0.258
  0.263   0.267   0.270   0.272   0.273   0.275   0.277   0.278
  0.282   0.282   0.289   0.289   0.290   0.295   0.303   0.304
  0.307   0.308   0.310   0.312   0.314   0.315   0.316   0.319
  0.321   0.322   0.324   0.328   0.329   0.331   0.332   0.333
  0.335   0.336   0.340   0.342   0.346   0.346   0.349   0.349
  0.350   0.354   0.362   0.371   0.377   0.379   0.383   0.386
  0.392   0.395   0.396   0.397   0.399   0.403   0.404   0.406
  0.408   0.410   0.412   0.413   0.414   0.415   0.419   0.423
  0.428   0.430   0.431   0.431   0.433   0.435   0.439   0.442
  0.444   0.447   0.448   0.449   0.453   0.455   0.458   0.460
  0.460   0.462   0.465   0.467   0.469   0.470   0.471   0.474
  0.475   0.475   0.476   0.478   0.480   0.481   0.483   0.486
  0.487   0.488   0.489   0.490   0.491   0.492   0.494   0.495
  0.495   0.497   0.498   0.499   0.500   0.501   0.503   0.504
  0.504   0.506   0.507   0.508   0.509   0.511   0.512   0.512
  0.513   0.513   0.514   0.514   0.515   0.517   0.517   0.518
  0.519   0.520   0.521   0.523   0.523   0.524   0.525   0.526
  0.527   0.527   0.528   0.529   0.530   0.531   0.532   0.532
  0.533   0.535   0.535   0.536   0.537   0.538   0.539   0.539
  0.540   0.541   0.541   0.542   0.543   0.544   0.545   0.546
  0.547   0.547   0.548   0.549   0.550   0.551   0.551   0.552
  0.553   0.553   0.554   0.554   0.556   0.556   0.557   0.558
  0.560   0.560   0.561   0.562   0.563   0.565   0.565   0.566
  0.566   0.567   0.568   0.569   0.570   0.571   0.572   0.572
  0.573   0.574   0.575   0.576   0.577   0.578   0.579   0.579
  0.580   0.580   0.581   0.583   0.585   0.585   0.586   0.586
  0.588   0.589   0.589   0.590   0.591   0.591   0.591   0.592
  0.593   0.594   0.596   0.596   0.597   0.598   0.600   0.600
  0.601   0.601   0.603   0.605   0.606   0.607   0.608   0.609
  0.609   0.610   0.611   0.612   0.613   0.615   0.615   0.616
  0.617   0.618   0.620   0.621   0.622   0.623   0.625   0.626
  0.628   0.629   0.629   0.629   0.630   0.631   0.632   0.633
  0.634   0.634   0.636   0.636   0.637   0.638   0.639   0.640
  0.641   0.642   0.644   0.645   0.647   0.647   0.648   0.649
  0.650   0.651   0.652   0.653   0.654   0.655   0.657   0.658
  0.658   0.658   0.661   0.661   0.662   0.663   0.664   0.665
  0.665   0.666   0.666   0.668   0.669   0.670   0.671   0.671
  0.671   0.673   0.673   0.674   0.675   0.677   0.677   0.678
  0.679   0.680   0.681   0.682   0.682   0.683   0.685   0.687
  0.688   0.688   0.689   0.691   0.692   0.693   0.694   0.695
  0.696   0.698   0.698   0.700   0.701   0.702   0.703   0.704
  0.705   0.707   0.709   0.711   0.712   0.712   0.714   0.715
  0.717   0.718   0.719   0.721   0.722   0.723   0.724   0.725
  0.726   0.727   0.728   0.729   0.730   0.732   0.735   0.735
  0.736   0.738   0.738   0.740   0.743   0.743   0.745   0.747
  0.749   0.750   0.752   0.753   0.754   0.756   0.758   0.758
  0.761   0.763   0.763   0.764   0.765   0.766   0.768   0.769
  0.770   0.771   0.772   0.773   0.774   0.776   0.778   0.779
  0.780   0.781   0.784   0.785   0.786   0.786   0.787   0.788
  0.789   0.789   0.791   0.793   0.794   0.794   0.796   0.797
  0.798   0.798   0.799   0.801   0.802   0.803   0.804   0.806
  0.806   0.807   0.808   0.808   0.809   0.809   0.811   0.812
  0.812   0.813   0.813   0.814   0.817   0.817   0.818   0.818
  0.819   0.819   0.820   0.821   0.822   0.823   0.823   0.825
  0.826   0.826   0.829   0.830   0.830   0.831   0.833   0.834
  0.836   0.839   0.839   0.841   0.842   0.843   0.847   0.848
  0.850   0.852   0.852   0.855   0.857   0.858   0.859   0.861
  0.865   0.866   0.867   0.873   0.878   0.879   0.882   0.886
  0.887   0.890   0.897   0.897   0.899   0.902   0.905   0.907
  0.910   0.913   0.917   0.918   0.919   0.921   0.922   0.923
  0.926   0.927   0.930   0.932   0.933   0.934   0.936   0.938
  0.939   0.941   0.941   0.943   0.945   0.948   0.950   0.952
  0.953   0.955   0.957   0.958   0.961   0.962   0.964   0.966
  0.966   0.973   0.975   0.976   0.977   0.979   0.982   0.983
  0.990   0.993   0.994   0.998   1.000   1.002   1.004   1.004
  1.006   1.008   1.008   1.011   1.013   1.015   1.016   1.017
  1.020   1.022   1.023   1.024   1.025   1.027   1.028   1.031
  1.032   1.034   1.035   1.036   1.037   1.038   1.040   1.042
  1.043   1.045   1.046   1.051   1.053   1.054   1.055   1.057
  1.059   1.061   1.062   1.063   1.063   1.065   1.067   1.069
  1.070   1.071   1.073   1.075   1.076   1.078   1.081   1.082
  1.083   1.087   1.089   1.089   1.090   1.093   1.094   1.096
  1.097   1.098   1.100   1.102   1.103   1.103   1.104   1.106
  1.108   1.110   1.113   1.116   1.119   1.122   1.125   1.126
  1.127   1.131   1.135   1.138   1.138   1.143   1.145   1.145
  1.148   1.150   1.152   1.154   1.156   1.159   1.161   1.161
  1.162   1.162   1.164   1.167   1.168   1.171   1.171   1.172
  1.174   1.177   1.177   1.178   1.181   1.182   1.185   1.186
  1.187   1.188   1.190   1.190   1.192   1.194   1.197   1.199
  1.203   1.204   1.207   1.210   1.211   1.213   1.217   1.219
  1.222   1.224   1.226   1.228   1.232   1.234   1.235   1.242
  1.246   1.248   1.252   1.254   1.256   1.257   1.258   1.261
  1.263   1.265   1.267   1.270   1.272   1.273   1.273   1.275
  1.277   1.280   1.282   1.283   1.285   1.288   1.291   1.294
  1.296   1.297   1.300   1.301   1.304   1.307   1.309   1.310
  1.312   1.317   1.318   1.320   1.321   1.325   1.327   1.330
  1.333   1.335   1.339   1.341   1.342   1.347   1.347   1.349
  1.351   1.355   1.356   1.358   1.360   1.362   1.366   1.369
  1.371   1.372   1.373   1.377   1.380   1.380   1.383   1.384
  1.386   1.387   1.391   1.396   1.396   1.398   1.401   1.402
  1.405   1.407   1.408   1.412   1.417   1.419   1.420   1.423
  1.426   1.428   1.429   1.434   1.439   1.440   1.442   1.447
  1.449   1.450   1.452   1.454   1.458   1.460   1.463   1.464
  1.465   1.468   1.470   1.471   1.474   1.476   1.476   1.477
  1.478   1.482   1.485   1.488   1.489   1.490   1.492   1.496
  1.498   1.500   1.502   1.503   1.507   1.510   1.511   1.516
  1.520   1.523   1.524   1.527   1.531   1.532   1.537   1.539
  1.542   1.545   1.549   1.550   1.553   1.555   1.557   1.559
  1.563   1.565   1.566   1.570   1.570   1.571   1.573   1.575
  1.578   1.580   1.581   1.583   1.585   1.586   1.588   1.591
  1.594   1.596   1.596   1.602   1.603   1.612   1.616   1.619
  1.622   1.626   1.629   1.631   1.636   1.638   1.639   1.641
  1.644   1.647   1.649   1.650   1.652   1.655   1.664   1.674
  1.675   1.681   1.686   1.689   1.693   1.695   1.699   1.702
  1.703   1.707   1.708   1.710   1.711   1.712   1.716   1.719
  1.722   1.723   1.724   1.725   1.727   1.730   1.731   1.734
  1.736   1.739   1.740   1.742   1.743   1.747   1.748   1.749
  1.750   1.751   1.752   1.754   1.756   1.758   1.759   1.760
  1.763   1.764   1.765   1.766   1.766   1.767   1.770   1.771
  1.772   1.773   1.775   1.776   1.778   1.779   1.780   1.781
  1.784   1.784   1.786   1.787   1.788   1.789   1.790   1.792
  1.793   1.794   1.796   1.798   1.799   1.800   1.800   1.803
  1.805   1.806   1.806   1.807   1.809   1.812   1.813   1.813
  1.816   1.818   1.819   1.819   1.820   1.821   1.824   1.824
  1.828   1.831   1.832   1.834   1.835   1.836   1.841   1.842
  1.844   1.845   1.847   1.848   1.850   1.851   1.852   1.855
  1.857   1.860   1.862   1.865   1.865   1.868   1.871   1.871
  1.873   1.873   1.875   1.877   1.879   1.882   1.885   1.886
  1.889   1.889   1.890   1.891   1.892   1.899   1.902   1.904
  1.908   1.909   1.913   1.913   1.917   1.918   1.921   1.923
  1.926   1.928   1.931   1.932   1.933   1.936   1.936   1.938
  1.939   1.942   1.943   1.947   1.949   1.950   1.951   1.952
  1.952   1.955   1.958   1.960   1.961   1.963   1.967   1.969
  1.971   1.971   1.972   1.976   1.977   1.977   1.979   1.981
  1.982   1.984   1.985   1.987   1.988   1.990   1.992   1.994
  1.995   1.996   1.998   1.999   2.001   2.004   2.005   2.005
  2.007   2.007   2.008   2.010   2.012   2.013   2.015   2.016
  2.017   2.020   2.021   2.022   2.024   2.025   2.026   2.028
  2.029   2.030   2.031   2.033   2.034   2.035   2.037   2.039
  2.040   2.040   2.041   2.041   2.044   2.045   2.047   2.047
  2.049   2.050   2.051   2.053   2.054   2.055   2.056   2.057
  2.058   2.059   2.061   2.061   2.062   2.064   2.067   2.069
  2.070   2.070   2.071   2.073   2.074   2.076   2.077   2.079
  2.080   2.081   2.084   2.084   2.086   2.088   2.090   2.093
  2.094   2.096   2.097   2.100   2.102   2.105   2.106   2.109
  2.111   2.113   2.115   2.116   2.120   2.122   2.123   2.128
  2.129   2.132   2.134   2.137   2.140   2.142   2.143   2.146
  2.151   2.152   2.155   2.156   2.159   2.164   2.167   2.173
  2.174   2.180   2.182   2.186   2.196   2.199   2.203   2.203
  2.205   2.210   2.213   2.218   2.218   2.220   2.223   2.225
  2.229   2.230   2.232   2.236   2.237   2.239   2.243   2.247
  2.248   2.251   2.252   2.255   2.259   2.263   2.265   2.266
  2.270   2.273   2.274   2.275   2.279   2.282   2.284   2.285
  2.286   2.287   2.290   2.292   2.294   2.295   2.298   2.300
  2.301   2.302   2.306   2.307   2.311   2.313   2.314   2.321
  2.323   2.323   2.325   2.328   2.330   2.331   2.333   2.335
  2.337   2.339   2.342   2.349   2.349   2.350   2.351   2.353
  2.354   2.357   2.359   2.360   2.364   2.365   2.366   2.368
  2.371   2.371   2.373   2.377   2.379   2.380   2.381   2.382
  2.384   2.386   2.387   2.388   2.389   2.389   2.391   2.394
  2.396   2.398   2.400   2.402   2.403   2.404   2.407   2.409
  2.411   2.411   2.413   2.415   2.417   2.419   2.421   2.422
  2.423   2.425   2.426   2.429   2.430   2.434   2.440   2.442
  2.443   2.444   2.446   2.447   2.453   2.455   2.461   2.462
  2.463   2.466   2.467   2.469   2.472   2.473   2.474   2.476
  2.477   2.479   2.479   2.480   2.482   2.487   2.488   2.491
  2.493   2.493   2.494   2.497   2.498   2.503   2.504   2.505
  2.508   2.509   2.511   2.513   2.516   2.518   2.520   2.523
  2.524   2.526   2.527   2.530   2.534   2.535   2.538   2.540
  2.541   2.543   2.548   2.550   2.556   2.557   2.560   2.562
  2.566   2.568   2.573   2.573   2.576   2.576   2.582   2.586
  2.590   2.592   2.594   2.594   2.599   2.602   2.603   2.607
  2.608   2.609   2.611   2.612   2.614   2.616   2.617   2.618
  2.622   2.624   2.625   2.628   2.629   2.633   2.635   2.637
  2.638   2.639   2.642   2.643   2.646   2.648   2.648   2.650
  2.651   2.653   2.654   2.655   2.658   2.660   2.661   2.663
  2.665   2.667   2.668   2.670   2.671   2.672   2.674   2.675
  2.677   2.679   2.680   2.681   2.683   2.686   2.688   2.690
  2.694   2.695   2.695   2.697   2.701   2.702   2.703   2.705
  2.707   2.709   2.711   2.713   2.716   2.720   2.721   2.725
  2.727   2.728   2.730   2.733   2.734   2.739   2.739   2.740
  2.743   2.745   2.746   2.749   2.752   2.753   2.754   2.758
  2.759   2.760   2.765   2.765   2.767   2.769   2.771   2.774
  2.776   2.779   2.781   2.783   2.786   2.790   2.790   2.792
  2.792   2.796   2.796   2.800   2.805   2.808   2.810   2.815
  2.826   2.826   2.829   2.830   2.832   2.834   2.840   2.842
  2.845   2.847   2.847   2.850   2.852   2.854   2.856   2.857
  2.858   2.863   2.864   2.867   2.869   2.871   2.872   2.877
  2.877   2.880   2.884   2.887   2.888   2.890   2.892   2.893
  2.894   2.895   2.899   2.900   2.901   2.903   2.903   2.905
  2.908   2.909   2.911   2.912   2.913   2.914   2.916   2.918
  2.919   2.920   2.922   2.924   2.925   2.926   2.928   2.929
  2.932   2.938   2.939   2.941   2.943   2.944   2.947   2.950
  2.954   2.961   2.963   2.965   2.966   2.971   2.974   2.978
  2.983   2.985   2.988   2.989   2.990   2.997   2.999   3.000
  3.002   3.005   3.009   3.010   3.015   3.017   3.018   3.023
  3.025   3.026   3.027   3.032   3.035   3.038   3.039   3.043
  3.045   3.048   3.048   3.050   3.053   3.058   3.062   3.063
  3.066   3.071   3.072   3.076   3.080   3.083   3.094   3.097
  3.105   3.106   3.113   3.119   3.129   3.136   3.142   3.145
  3.148   3.156   3.164   3.168   3.170   3.176   3.185   3.198
  3.200   3.202   3.206   3.211   3.214   3.227   3.230   3.233
  3.234   3.242   3.243   3.250   3.258   3.268   3.271   3.281
  3.287   3.309   3.314   3.315   3.317   3.321   3.328   3.328
  3.331   3.332   3.333   3.345   3.346   3.360   3.370   3.381
  3.404   3.409   3.412   3.419   3.419   3.427   3.428   3.439
  3.439   3.447   3.456   3.461   3.468   3.478   3.488   3.489
  3.505   3.510   3.513   3.519   3.526   3.530   3.537   3.539
  3.550   3.557   3.560   3.565   3.566   3.568   3.570   3.576
  3.602   3.615   3.676   3.684   3.855   3.891   3.981   4.071
  4.073   4.080   4.084   4.087   4.088   4.095   4.098   4.102
  4.104   4.107   4.109   4.110   4.113   4.114   4.119   4.123
  4.125   4.130   4.141   4.142   4.147   4.151   4.153   4.157
  4.161   4.170   4.171   4.174   4.178   4.180   4.185   4.189
  4.198   4.203   4.206   4.211   4.220   4.221   4.233   4.241
  4.242   4.244   4.249   4.249   4.253   4.255   4.258   4.261
  4.271   4.283   4.286   4.290   4.292   4.294   4.296   4.298
  4.300   4.313   4.324   4.357   4.379   4.382   4.387   4.395
  4.396   4.400   4.403   4.406   4.409   4.410   4.414   4.417
  4.420   4.428   4.428   4.434   4.443   4.454   4.463   4.471
  4.484   4.487   4.503   4.504   4.531   4.542   4.547   4.556
  4.560   4.566   4.617   4.619   4.630   4.631   4.641   4.647
  4.661   4.664   4.685   4.692   4.693   4.695   4.697   4.699
  4.703   4.709   4.720   4.723   4.733   4.755   4.798   4.831
  4.849   4.852   4.860   4.863   4.868   4.880   4.881   4.890
  4.902   4.911   4.953   4.955   4.957   4.961   4.965   4.990
  4.993   4.996   5.001   5.006   5.149   5.160   5.161   5.168
  5.193   5.205   5.218   5.221   5.296   5.306   5.315   5.330
  5.345   5.368
 --------------------------------------------------------------
 
          Ground-State Mulliken Net Atomic Charges

     Atom                 Charge (a.u.)
  ----------------------------------------
      1 O                    -0.424391
      2 C                    -0.093591
      3 H                     0.133455
      4 H                     0.133649
      5 H                     0.136655
      6 O                    -0.493244
      7 C                     0.583657
      8 C                    -0.261477
      9 H                     0.126450
     10 H                     0.120769
     11 C                    -0.182867
     12 H                     0.120220
     13 H                     0.107608
     14 C                    -0.178227
     15 H                     0.128239
     16 H                     0.106914
     17 C                    -0.009719
     18 C                     0.095292
     19 C                    -0.088426
     20 H                     0.090574
     21 C                    -0.108054
     22 H                     0.083837
     23 C                    -0.070392
     24 H                     0.093782
     25 C                    -0.106815
     26 H                     0.084195
     27 C                    -0.083576
     28 H                     0.092936
     29 C                    -0.006832
     30 C                    -0.027855
     31 C                     0.002100
     32 C                     0.004790
     33 C                    -0.028092
     34 C                     0.008514
     35 C                     0.015590
     36 C                    -0.028933
     37 C                     0.019730
     38 C                    -0.025733
     39 C                    -0.098504
     40 C                    -0.010816
     41 C                     0.000786
     42 C                    -0.011461
     43 C                     0.008254
     44 C                     0.023888
     45 C                    -0.075802
     46 C                    -0.000158
     47 C                    -0.008691
     48 C                    -0.002178
     49 C                    -0.025421
     50 C                     0.031603
     51 C                     0.014666
     52 C                     0.002642
     53 C                     0.011251
     54 C                     0.022534
     55 C                    -0.005457
     56 C                    -0.003853
     57 C                    -0.028486
     58 C                    -0.009168
     59 C                     0.008854
     60 C                     0.049313
     61 C                    -0.014850
     62 C                    -0.004789
     63 C                     0.005696
     64 C                     0.001419
     65 C                     0.015375
     66 C                     0.005803
     67 C                    -0.010879
     68 C                     0.010608
     69 C                    -0.003594
     70 C                     0.020455
     71 C                    -0.040514
     72 C                    -0.001596
     73 C                    -0.007648
     74 C                     0.011938
     75 C                     0.005445
     76 C                     0.020759
     77 C                    -0.034674
     78 C                     0.013959
     79 C                     0.017004
     80 C                    -0.006623
     81 C                     0.037258
     82 C                     0.013262
     83 C                    -0.001819
     84 C                     0.021500
     85 C                     0.006039
     86 C                    -0.008036
     87 C                    -0.027868
     88 C                    -0.007528
     89 O                    -0.431154
     90 C                    -0.107124
     91 H                     0.130137
     92 H                     0.133052
     93 H                     0.135424
     94 O                    -0.471249
     95 C                     0.586134
     96 C                    -0.246195
     97 H                     0.125006
     98 H                     0.118683
     99 C                    -0.202731
    100 H                     0.112817
    101 H                     0.117069
    102 C                    -0.169271
    103 H                     0.111509
    104 H                     0.138226
    105 C                    -0.023661
    106 C                     0.083529
    107 C                    -0.105991
    108 H                     0.093779
    109 C                    -0.104011
    110 H                     0.093930
    111 C                    -0.083155
    112 H                     0.091038
    113 C                    -0.089656
    114 H                     0.087137
    115 C                    -0.089501
    116 H                     0.095304
    117 C                    -0.002566
    118 C                    -0.022061
    119 C                     0.016945
    120 C                    -0.005053
    121 C                     0.011511
    122 C                    -0.001960
    123 C                    -0.004170
    124 C                     0.019035
    125 C                    -0.005431
    126 C                    -0.006504
    127 C                    -0.111568
    128 C                     0.022284
    129 C                     0.025458
    130 C                    -0.005970
    131 C                     0.014817
    132 C                    -0.011299
    133 C                    -0.082205
    134 C                    -0.000860
    135 C                    -0.017597
    136 C                    -0.025121
    137 C                    -0.004746
    138 C                    -0.003280
    139 C                     0.012961
    140 C                    -0.037773
    141 C                     0.031350
    142 C                    -0.016598
    143 C                    -0.000315
    144 C                    -0.006867
    145 C                    -0.010379
    146 C                     0.003536
    147 C                    -0.017635
    148 C                     0.010769
    149 C                     0.037140
    150 C                    -0.006235
    151 C                    -0.025365
    152 C                    -0.007164
    153 C                    -0.029511
    154 C                     0.001063
    155 C                    -0.002437
    156 C                     0.054161
    157 C                     0.019133
    158 C                     0.040200
    159 C                    -0.001714
    160 C                     0.013893
    161 C                    -0.019064
    162 C                    -0.035512
    163 C                     0.003208
    164 C                    -0.048289
    165 C                     0.011590
    166 C                     0.029124
    167 C                    -0.006849
    168 C                     0.017235
    169 C                     0.031778
    170 C                     0.019611
    171 C                    -0.004971
    172 C                    -0.023057
    173 C                     0.001418
    174 C                     0.026697
    175 C                     0.015987
    176 C                    -0.010484
  ----------------------------------------
  Sum of atomic charges =     0.000000

 -----------------------------------------------------------------
                    Cartesian Multipole Moments
 -----------------------------------------------------------------
    Charge (ESU x 10^10)
                 0.0000
    Dipole Moment (Debye)
         X      -0.5831      Y      -1.1732      Z      -3.2180
       Tot       3.4745
    Quadrupole Moments (Debye-Ang)
        XX    -791.2174     XY      25.1448     YY    -785.8565
        XZ      -9.5335     YZ     -13.9929     ZZ    -817.4896
    Octopole Moments (Debye-Ang^2)
       XXX    -529.7796    XXY    -205.2612    XYY     -24.8911
       YYY      42.3078    XXZ    -444.1733    XYZ    -213.3976
       YYZ     -73.0593    XZZ      -3.7697    YZZ     -20.1558
       ZZZ     -29.0597
    Hexadecapole Moments (Debye-Ang^3)
      XXXX -170567.2275   XXXY     728.0856   XXYY  -36474.7068
      XYYY    3238.0674   YYYY  -45322.9007   XXXZ   -1580.3284
      XXYZ   -1560.6007   XYYZ    -865.7808   YYYZ    -901.7750
      XXZZ  -32365.3887   XYZZ     678.5627   YYZZ  -11136.2254
      XZZZ     193.2691   YZZZ    -177.5180   ZZZZ  -20399.9211
 -----------------------------------------------------------------
Archival summary:
1\1\mn251\SP\ProcedureUnspecified\6-31G**\428\afmv_a\FriOct1217:44:562018FriOct1217:44:562018\0\\#,ProcedureUnspecified,6-31G**,\\0,1\C\C,1,1.37784\C,1,1.38517,2,126.356\C,3,1.40229,1,119.601,2,-138.173,0\C,4,1.39979,3,104.859,1,137.801,0\C,5,1.39458,4,121.081,3,-141.441,0\C,6,1.37519,5,119.24,4,-8.03041,0\C,6,1.37834,5,124.284,4,138.537,0\C,8,1.39352,6,108.796,5,-145.975,0\C,9,1.39879,8,106.919,6,-3.2385,0\C,5,1.40439,4,111.164,3,-3.82602,0\C,11,1.37272,5,106.44,4,3.75193,0\C,8,1.40811,6,121.436,5,-4.21189,0\C,13,1.3694,8,121.001,6,-136.687,0\C,13,1.39797,8,118.918,6,3.87279,0\C,15,1.34672,13,108.661,8,-145.486,0\C,2,1.41003,1,108.98,3,145.441,0\C,4,1.41104,3,123.135,1,-7.5888,0\C,18,1.40116,4,115.05,3,138.074,0\C,19,1.3969,18,104.672,4,-143.835,0\C,9,1.41779,8,122.625,6,140.537,0\C,21,1.38765,9,121.311,8,-135.636,0\C,21,1.40451,9,118.204,8,-1.14097,0\C,23,1.3626,21,111.938,9,-141.031,0\C,24,1.38967,23,120.966,21,150.106,0\C,25,1.39106,24,121.61,23,-4.16652,0\C,25,1.40282,24,114.136,23,-134.655,0\C,27,1.36814,25,121.405,24,-13.1164,0\C,27,1.38065,25,109.675,24,137.204,0\C,29,1.3869,27,107.496,25,-1.93524,0\C,29,1.40089,27,123.358,25,-147.322,0\C,31,1.37862,29,121.534,27,138.919,0\C,32,1.39424,31,106.772,29,-146.833,0\C,30,1.4034,29,120.229,27,-144.897,0\C,34,1.38522,30,121.162,29,2.43079,0\C,35,1.37562,34,111.303,30,144.924,0\C,36,1.36571,35,106.858,34,-8.14872,0\C,37,1.39463,36,109.05,35,10.9731,0\C,28,1.40879,27,121.949,25,14.8339,0\C,39,1.37965,28,118.049,27,-11.4919,0\C,39,1.39386,28,114.666,27,134.022,0\C,41,1.39587,39,123.003,28,-146.368,0\C,33,1.41005,32,112.419,31,2.76233,0\C,43,1.38116,33,119.433,32,126.862,0\C,44,1.37472,43,122.404,33,12.1305,0\C,45,1.37013,44,118.554,43,-9.39669,0\C,46,1.38568,45,119.46,44,-141.325,0\C,45,1.39601,44,106.735,43,-150.347,0\C,48,1.35126,45,110.43,44,-0.559901,0\C,49,1.39478,48,107.554,45,1.14803,0\C,50,1.37061,49,121.202,48,149.155,0\C,49,1.40104,48,120.165,45,145.832,0\C,52,1.4132,49,123.193,48,4.13704,0\C,20,1.42017,19,109.255,18,2.52603,0\C,54,1.40191,20,109.573,19,-1.92546,0\C,16,1.4215,15,109.462,13,-0.842237,0\C,10,1.42752,9,120.214,8,142.639,0\C,57,1.39738,10,119.682,9,2.96955,0\C,31,1.50261,29,120.762,27,-12.2622,0\C,59,1.49384,31,114.312,29,12.7588,0\C,59,1.53372,31,130.516,29,-59.1238,0\C,61,1.52105,59,123.041,31,-5.54156,0\C,62,1.40965,61,115.836,59,-66.8988,0\H,63,1.08629,62,116.413,61,5.31715,0\C,62,1.41796,61,121.649,59,116.801,0\H,65,1.0859,62,122.457,61,-4.98198,0\C,65,1.3676,62,117.73,61,174.036,0\H,67,1.08599,65,113.696,62,172.516,0\C,67,1.41231,65,122.001,62,-7.57707,0\H,69,1.08611,67,117.228,65,-170.421,0\C,69,1.40934,67,120.125,65,7.62146,0\H,71,1.08603,69,116.159,67,-177.252,0\C,61,1.57404,59,121.494,31,-157.906,0\H,73,1.09635,61,104.295,59,-37.56,0\H,73,1.09756,61,108.38,59,-157.361,0\C,73,1.54504,61,110.092,59,80.0432,0\H,76,1.09666,73,106.824,61,75.6009,0\H,76,1.09704,73,106.616,61,-42.2224,0\C,76,1.54688,73,112.988,61,-162.351,0\H,79,1.09741,76,122.7,73,-45.7771,0\H,79,1.09745,76,111.182,73,-167.555,0\C,79,1.49844,76,106.928,73,73.7349,0\O,82,1.18946,79,124.91,76,-81.9796,0\O,82,1.29997,79,108.193,76,101.245,0\C,84,1.45071,82,120.735,79,-175.817,0\H,85,1.09625,84,115.699,82,161.747,0\H,85,1.09748,84,112.309,82,-63.6778,0\H,85,1.09761,84,107.053,82,45.4572,0\C,1,3.14654,2,93.104,3,104.227,0\C,89,1.399,1,96.0812,2,172.159,0\C,90,1.3364,89,121.233,1,96.2819,0\C,90,1.39984,89,119.781,1,-126.076,0\C,92,1.35761,90,108.753,89,-139.509,0\C,89,1.40148,1,110.934,2,45.0791,0\C,94,1.39051,89,118.861,1,120.381,0\C,95,1.3844,94,120.624,89,-7.02995,0\C,96,1.39415,95,106.625,94,144.419,0\C,97,1.38079,96,112.853,95,4.88149,0\C,97,1.39787,96,119.302,95,-144.308,0\C,99,1.38015,97,120.926,96,1.97982,0\C,99,1.40254,97,117.131,96,140.291,0\C,101,1.36823,99,103.937,97,-142.972,0\C,102,1.38965,101,114.173,99,-1.84047,0\C,103,1.37588,102,122.422,101,142.585,0\C,101,1.40275,99,123.977,97,2.66932,0\C,105,1.3492,101,120.115,99,-136.598,0\C,105,1.36211,101,117.255,99,-0.303914,0\C,106,1.38624,105,119.609,101,-3.27154,0\C,108,1.37605,106,120.42,105,0.0392996,0\C,106,1.387,105,110.963,101,141.027,0\C,110,1.3852,106,103.317,105,-1.14582,0\C,98,1.40849,97,103.076,96,-2.37017,0\C,108,1.4092,106,120.6,105,140.899,0\C,113,1.38795,108,107.654,106,-143.245,0\C,114,1.40208,113,122.534,108,143.948,0\C,114,1.40616,113,108.466,108,-0.809627,0\C,113,1.4068,108,119.035,106,-0.94401,0\C,117,1.39123,113,122.018,108,0.876411,0\C,115,1.40837,114,117.36,113,-6.71321,0\C,119,1.38927,115,110.234,114,-138.55,0\C,120,1.40391,119,108.329,115,-2.65543,0\C,121,1.40341,120,116.404,119,140.373,0\C,122,1.39093,121,121.227,120,7.77283,0\C,123,1.40667,122,107.445,121,-147.576,0\C,124,1.37875,123,109.367,122,5.06602,0\C,124,1.39925,123,115.931,122,138.05,0\C,120,1.4081,119,120.083,115,144.747,0\C,127,1.39611,120,123.754,119,1.1127,0\C,128,1.37014,127,110.548,120,-141.562,0\C,129,1.40669,128,120.216,127,142.102,0\C,130,1.39131,129,117.133,128,-136.467,0\C,131,1.40131,130,120.892,129,-3.48527,0\C,127,1.40782,120,121.459,119,-141.102,0\C,133,1.39833,127,109.261,120,147.88,0\C,134,1.39419,133,116.816,127,-133.962,0\C,93,1.41015,92,109.778,90,-3.6906,0\C,136,1.39028,93,114.983,92,142.326,0\C,137,1.40867,136,117.558,93,-136.344,0\C,125,1.41275,124,107.667,123,-5.82178,0\C,118,1.41312,117,111.305,113,-143.89,0\C,111,1.41417,110,118.061,106,-140.124,0\C,141,1.3966,111,122.765,110,-5.70441,0\C,140,1.42984,118,107.16,117,4.51557,0\C,116,1.43014,114,126.225,113,152.925,0\C,115,1.43349,114,121.449,113,-148.03,0\C,141,1.43489,111,121.675,110,143.489,0\C,143,1.4409,140,106.583,118,-6.27425,0\C,144,1.48299,116,114.218,114,-1.71876,0\C,148,1.50011,144,129.038,116,74.505,0\C,149,1.52398,148,116.611,144,144.404,0\C,150,1.39083,149,118.705,148,-57.5132,0\H,151,1.08629,150,115.248,149,-3.81039,0\C,150,1.3977,149,120.208,148,129.751,0\H,153,1.08658,150,116.228,149,1.38064,0\C,153,1.37298,150,118.629,149,177.346,0\H,155,1.08541,153,123.718,150,-177.739,0\C,155,1.38611,153,122.297,150,-10.3987,0\H,157,1.08571,155,122.806,153,-162.254,0\C,157,1.36715,155,117.271,153,10.9703,0\H,159,1.08574,157,116.594,155,177.45,0\C,149,1.53944,148,122.904,144,3.79154,0\H,161,1.09663,149,110.544,148,179.644,0\H,161,1.09741,149,114.913,148,-61.089,0\C,161,1.55854,149,109.817,148,53.3413,0\H,164,1.09626,161,106.129,149,-89.8499,0\H,164,1.09777,161,112.418,149,27.2849,0\C,164,1.5252,161,108.832,149,152.736,0\H,167,1.09646,164,113.417,161,148.974,0\H,167,1.09768,164,120.37,161,36.0447,0\C,167,1.5542,164,115.457,161,-91.7337,0\O,170,1.25164,167,119.057,164,-122.782,0\O,170,1.31593,167,109.385,164,54.6371,0\C,172,1.44806,170,118.902,167,-172.59,0\H,173,1.09638,172,107.978,170,-38.6129,0\H,173,1.0969,172,106.034,170,-159.775,0\H,173,1.09738,172,109.455,170,70.4333,0\\\@

 Total job time:  864.07s(wall), 8252.57s(cpu) 
 Fri Oct 12 17:44:56 2018

        *************************************************************
        *                                                           *
        *  Thank you very much for using Q-Chem.  Have a nice day.  *
        *                                                           *
        *************************************************************


