
Running Job 1 of 1 ./9/8.qcin
qchem ./9/8.qcin_32640.0 /tmpu/cab_g/afmv_a/scratch_qchem/qchem32640/ 1
/tmpu/appuserlic/qchem4.4/serial-multicore/exe/qcprog.exe_s ./9/8.qcin_32640.0 /tmpu/cab_g/afmv_a/scratch_qchem/qchem32640/
Check license passed

                  Welcome to Q-Chem
     A Quantum Leap Into The Future Of Chemistry


 Q-Chem 4.4, Q-Chem, Inc., Pleasanton, CA (2016)

 Y. Shao,  Z. Gan,  E. Epifanovsky,  A. T. B. Gilbert,  M. Wormit,  
 J. Kussmann,  A. W. Lange,  A. Behn,  J. Deng,  X. Feng,  D. Ghosh,  
 M. Goldey,  P. R. Horn,  L. D. Jacobson,  I. Kaliman,  F. Rob,  
 R. Z. Khaliullin,  T. Kus,  A. Landau,  J. Liu,  E. I. Proynov,  Y. M. Rhee,  
 R. M. Richard,  M. A. Rohrdanz,  R. P. Steele,  E. J. Sundstrom,  
 H. L. Woodcock III,  P. M. Zimmerman,  D. Zuev,  B. Albrecht,  E. Alguire,  
 B. Austin,  S. A. Baeppler,  G. J. O. Beran,  Y. A. Bernard,  E. Berquist,  
 K. Brandhorst,  K. B. Bravaya,  S. T. Brown,  D. Casanova,  C.-M. Chang,  
 Y. Chen,  S. H. Chien,  K. D. Closser,  M. P. Coons,  D. L. Crittenden,  
 S. Dasgupta,  M. Diedenhofen,  R. A. DiStasio Jr.,  H. Do,  A. D. Dutoi,  
 R. G. Edgar,  P.-T. Fang,  S. Fatehi,  Q. Feng,  L. Fusti-Molnar,  
 A. Ghysels,  A. Golubeva-Zadorozhnaya,  J. Gomes,  A. Gunina,  
 M. W. D. Hanson-Heine,  P. H. P. Harbach,  A. W. Hauser,  J. E. Herr,  
 E. G. Hohenstein,  Z. C. Holden,  K. Hui,  T.-C. Jagau,  H. Ji,  B. Kaduk,  
 K. Khistyaev,  Jaehoon Kim,  Jihan Kim,  R. A. King,  P. Klunzinger,  
 K. Koh,  D. Kosenkov,  T. Kowalczyk,  C. M. Krauter,  A. Kunitsa,  
 K. U. Lao,  A. Laurent,  K. V. Lawler,  J. Lee,  D. Lefrancois,  S. Lehtola,  
 S. V. Levchenko,  C. Y. Lin,  Y.-S. Lin,  F. Liu,  E. Livshits,  
 R. C. Lochan,  A. Luenser,  P. Manohar,  S. F. Manzer,  S.-P. Mao,  Y. Mao,  
 N. Mardirossian,  A. V. Marenich,  L. A. Martinez-Martinez,  S. A. Maurer,  
 N. J. Mayhall,  J.-M. Mewes,  A. F. Morrison,  K. Nanda,  T. S. Nguyen-Beck,  
 C. M. Oana,  R. Olivares-Amaya,  D. P. O'Neill,  J. A. Parkhill,  
 T. M. Perrine,  R. Peverati,  P. A. Pieniazek,  F. Plasser,  A. Prociuk,  
 D. R. Rehn,  E. Rosta,  N. J. Russ,  N. Sergueev,  S. M. Sharada,  
 S. Sharma,  D. W. Small,  A. Sodt,  T. Stauch,  T. Stein,  D. Stuck,  
 Y.-C. Su,  A. J. W. Thom,  T. Tsuchimochi,  L. Vogt,  O. Vydrov,  T. Wang,  
 M. A. Watson,  J. Wenzel,  A. White,  C. F. Williams,  V. Vanovschi,  
 K. Yao,  S. Yeganeh,  S. R. Yost,  Z.-Q. You,  I. Y. Zhang,  X. Zhang,  
 Y. Zhao,  B. R. Brooks,  G. K. L. Chan,  D. M. Chipman,  C. J. Cramer,  
 W. A. Goddard III,  M. S. Gordon,  W. J. Hehre,  A. Klamt,  
 H. F. Schaefer III,  M. W. Schmidt,  C. D. Sherrill,  D. G. Truhlar,  
 A. Warshel,  X. Xu,  A. Aspuru-Guzik,  R. Baer,  A. T. Bell,  N. A. Besley,  
 J.-D. Chai,  A. Dreuw,  B. D. Dunietz,  T. R. Furlani,  S. R. Gwaltney,  
 C.-P. Hsu,  Y. Jung,  J. Kong,  D. S. Lambrecht,  W. Liang,  C. Ochsenfeld,  
 V. A. Rassolov,  L. V. Slipchenko,  J. E. Subotnik,  T. Van Voorhis,  
 J. M. Herbert,  A. I. Krylov,  P. M. W. Gill,  M. Head-Gordon

 Contributors to earlier versions of Q-Chem not listed above: 
 R. D. Adamson,  J. Baker,  E. F. C. Byrd,  A. K. Chakraborty,  C.-L. Cheng,  
 H. Dachsel,  R. J. Doerksen,  G. Hawkins,  A. Heyden,  S. Hirata,  
 G. Kedziora,  F. J. Keil,  C. Kelley,  P. P. Korambath,  W. Kurlancheek,  
 A. M. Lee,  M. S. Lee,  D. Liotard,  I. Lotan,  P. E. Maslen,  N. Nair,  
 D. Neuhauser,  R. Olson,  B. Peters,  J. Ritchie,  N. E. Schultz,  
 N. Shenvi,  A. C. Simmonett,  K. S. Thanthiriwatte,  Q. Wu,  W. Zhang

 Please cite Q-Chem as follows:
 Y. Shao et al., Mol. Phys. 113, 184-215 (2015)
 DOI: 10.1080/00268976.2014.952696

 Q-Chem 4.4.2 for Intel X86 Linux

 Parts of Q-Chem use Armadillo 5.200.1 (Boston Tea Smuggler).
 http://arma.sourceforge.net/

 Q-Chem begins on Fri Oct 12 17:59:30 2018  

Host: 
0

     Scratch files written to /tmpu/cab_g/afmv_a/scratch_qchem/qchem32640//
 Dec716 11556_ 22328  22283 4050   
Processing $rem in /tmpu/appuserlic/qchem4.4/serial-multicore/config/preferences.
 MEM_TOTAL  2000 
FILE_GEOM_ORG=        593

Checking the input file for inconsistencies... 	...done.

--------------------------------------------------------------
User input:
--------------------------------------------------------------
$comment
SP
$end

$rem
MEM_STATIC 5000
MEM_TOTAL 20000
JOBTYPE SP
EXCHANGE B3LYP
BASIS 6-31g(d,p)
$end

$molecule
0 1
O          -7.604000     13.093000     -3.934000
C          -7.169000     14.464000     -3.648000
H          -6.794000     14.992000     -4.533000
H          -6.436000     14.464000     -2.831000
H          -8.055000     14.977000     -3.253000
O          -5.610000     12.143000     -4.455000
C          -6.825000     12.176000     -4.510000
C          -7.601000     11.016000     -5.034000
H          -8.624000     11.409000     -5.095000
H          -7.800000     10.278000     -4.247000
C          -7.074000     10.275000     -6.288000
H          -6.872000     10.986000     -7.099000
H          -6.170000      9.747000     -5.961000
C          -8.057000      9.140000     -6.739000
H          -8.477000      8.619000     -5.870000
H          -8.883000      9.648000     -7.251000
C          -7.405000      8.167000     -7.826000
C          -6.182000      7.441000     -7.306000
C          -6.289000      6.096000     -6.939000
H          -7.252000      5.619000     -6.781000
C          -5.113000      5.363000     -6.697000
H          -5.118000      4.364000     -6.270000
C          -3.838000      5.961000     -6.692000
H          -2.987000      5.323000     -6.473000
C          -3.755000      7.331000     -7.041000
H          -2.792000      7.812000     -7.187000
C          -4.912000      8.016000     -7.411000
H          -4.790000      8.997000     -7.860000
C          -5.542000      8.328000    -13.046000
C          -6.189000      6.004000    -12.819000
C          -9.836000      6.141000    -15.517000
C          -9.454000     11.280000    -11.904000
C         -12.119000      6.362000    -12.829000
C          -5.694000      7.166000    -12.287000
C         -11.871000      9.975000    -12.552000
C          -7.669000      7.168000    -15.667000
C          -9.149000      5.620000    -10.250000
C         -10.200000     10.583000    -10.954000
C          -8.254000      7.491000     -8.940000
C         -10.250000      6.413000     -9.858000
C         -11.460000      8.820000    -10.382000
C         -12.379000      8.780000    -13.091000
C          -6.934000      6.202000    -10.707000
C         -11.586000      7.479000    -14.971000
C          -7.456000      8.728000     -9.248000
C          -8.189000      9.894000     -9.823000
C         -11.626000      6.294000    -14.171000
C          -8.871000     10.386000    -15.219000
C          -9.642000      8.455000    -15.999000
C          -8.275000      8.370000    -15.981000
C          -6.552000      7.132000    -14.875000
C          -7.496000     10.501000    -10.904000
C          -8.000000      6.255000     -9.809000
C          -6.532000      5.909000    -14.183000
C         -11.407000      9.942000    -11.244000
C          -6.969000      5.366000    -11.850000
C         -11.393000      6.456000    -10.713000
C          -7.671000     11.205000    -13.183000
C          -8.425000      6.044000    -15.458000
C          -9.782000      7.601000     -9.203000
C          -6.589000      9.534000    -14.676000
C         -12.061000      7.668000    -10.906000
C          -9.235000      4.858000    -11.436000
C         -11.143000      9.816000    -14.751000
C         -11.112000     10.622000    -13.583000
C         -10.412000      4.745000    -12.252000
C          -8.090000     11.212000    -11.892000
C          -9.596000      9.944000     -9.914000
C          -8.777000     11.187000    -14.062000
C          -6.410000      8.574000    -10.351000
C          -8.519000      4.594000    -13.550000
C         -10.356000      8.865000     -9.542000
C         -11.405000      5.621000    -11.880000
C          -6.568000     10.322000    -13.502000
C         -10.558000      5.483000    -14.478000
C          -6.015000      8.310000    -14.399000
C         -10.404000      7.354000    -15.724000
C          -8.101000      4.645000    -12.229000
C          -9.930000      4.700000    -13.590000
C          -6.129000      7.357000    -10.947000
C          -6.426000      9.662000    -11.207000
C          -9.976000      9.697000    -15.576000
C          -7.763000      5.307000    -14.499000
C         -12.537000      7.610000    -12.286000
C          -9.875000     11.285000    -13.201000
C         -11.933000      8.701000    -14.458000
C          -5.909000      9.568000    -12.509000
C          -7.746000      9.604000    -15.492000
O          -7.361000     18.401000    -12.617000
C          -6.255000     19.357000    -12.967000
H          -6.396000     20.300000    -12.424000
H          -6.313000     19.670000    -14.016000
H          -5.234000     19.008000    -12.766000
O          -6.640000     16.697000    -14.017000
C          -7.432000     17.160000    -13.232000
C          -8.629000     16.332000    -12.729000
H          -9.006000     15.820000    -13.624000
H          -9.407000     17.057000    -12.461000
C          -8.445000     15.382000    -11.506000
H          -9.407000     14.970000    -11.174000
H          -7.771000     14.540000    -11.707000
C          -7.841000     16.174000    -10.372000
H          -7.093000     16.858000    -10.791000
H          -8.556000     16.833000     -9.865000
C          -7.045000     15.380000     -9.373000
C          -7.907000     14.731000     -8.299000
C          -8.257000     15.520000     -7.148000
H          -8.020000     16.574000     -7.028000
C          -8.981000     14.949000     -6.128000
H          -9.154000     15.454000     -5.182000
C          -9.518000     13.687000     -6.229000
H         -10.169000     13.217000     -5.498000
C          -9.311000     12.959000     -7.436000
H          -9.728000     11.967000     -7.584000
C          -8.456000     13.456000     -8.387000
H          -8.272000     12.802000     -9.234000
C          -2.828000     15.202000     -5.808000
C          -3.300000     12.880000     -6.185000
C           0.515000     12.383000     -8.703000
C          -2.093000     17.923000     -9.962000
C          -1.160000     12.726000    -11.756000
C          -3.772000     14.156000     -6.107000
C          -0.902000     16.351000    -11.881000
C           0.167000     13.502000     -6.606000
C          -4.768000     12.521000    -10.060000
C          -2.922000     17.384000    -10.975000
C          -5.809000     14.624000     -9.751000
C          -4.550000     13.313000    -11.157000
C          -3.210000     15.581000    -12.353000
C          -0.400000     15.016000    -12.078000
C          -4.985000     13.266000     -7.727000
C           0.749000     13.557000    -10.575000
C          -5.668000     15.863000     -8.871000
C          -4.736000     16.953000     -9.432000
C          -0.133000     12.565000    -10.829000
C           0.601000     16.668000     -8.157000
C           1.271000     14.602000     -8.456000
C           0.803000     14.634000     -7.152000
C          -0.970000     13.667000     -5.909000
C          -3.940000     17.462000     -8.429000
C          -5.402000     13.335000     -9.144000
C          -1.880000     12.634000     -6.141000
C          -2.310000     16.593000    -11.985000
C          -4.027000     12.297000     -7.238000
C          -3.328000     13.154000    -11.921000
C          -1.526000     17.695000     -7.774000
C           0.023000     12.376000     -7.413000
C          -5.096000     14.628000    -11.077000
C          -0.779000     16.127000     -6.136000
C          -2.699000     14.273000    -12.467000
C          -3.753000     11.655000     -9.575000
C           0.760000     15.915000    -10.427000
C          -0.135000     16.886000    -10.869000
C          -2.576000     11.525000    -10.229000
C          -2.615000     17.910000     -8.668000
C          -4.164000     16.848000    -10.697000
C          -0.410000     17.563000     -8.580000
C          -5.106000     15.708000     -7.498000
C          -1.963000     11.197000     -8.085000
C          -4.316000     15.735000    -11.548000
C          -2.411000     12.184000    -11.472000
C          -1.804000     17.065000     -6.559000
C          -0.225000     11.807000     -9.702000
C          -1.460000     14.980000     -5.647000
C           1.170000     13.460000     -9.248000
C          -3.345000     11.495000     -8.220000
C          -1.499000     11.267000     -9.371000
C          -4.783000     14.437000     -7.014000
C          -4.168000     16.721000     -7.265000
C           1.190000     15.832000     -9.093000
C          -1.214000     11.846000     -7.106000
C          -1.277000     13.994000    -12.375000
C          -0.757000     17.650000     -9.893000
C           0.625000     14.783000    -11.176000
C          -3.076000     16.514000     -6.347000
C           0.408000     15.948000     -6.900000
$end

--------------------------------------------------------------
 ----------------------------------------------------------------
             Standard Nuclear Orientation (Angstroms)
    I     Atom           X                Y                Z
 ----------------------------------------------------------------
    1      O       2.1484726338    -3.6594014075     5.1928815044
    2      C       3.4763578525    -3.1744945014     5.5830713791
    3      H       3.7745554633    -2.2600010536     5.0563704023
    4      H       4.2189444921    -3.9742415980     5.4658209454
    5      H       3.4137155514    -2.9822549208     6.6616398218
    6      O       2.5590898330    -4.2582545074     3.0428244167
    7      C       1.7997380155    -3.9240261160     3.9327767748
    8      C       0.3225486964    -4.0235523075     3.7585405767
    9      H      -0.0672553451    -3.5163190313     4.6504297025
   10      H      -0.0453116812    -5.0244902074     4.0162537180
   11      C      -0.2958737839    -3.6009596478     2.4027031677
   12      H       0.0467619412    -2.5978717400     2.1190459640
   13      H       0.0168739006    -4.3677379700     1.6835586132
   14      C      -1.8604877171    -3.6962505393     2.4313018756
   15      H      -2.1876016671    -4.5841105081     2.9860118354
   16      H      -2.2020396100    -2.8147522649     2.9869880251
   17      C      -2.5044686591    -3.5677619613     0.9745310523
   18      C      -2.0627110194    -4.6723541295     0.0375511540
   19      C      -2.9409571409    -5.7234672569    -0.2435323630
   20      H      -3.8240124228    -5.9107624341     0.3606165307
   21      C      -2.6295825572    -6.6053653352    -1.2943085751
   22      H      -3.1818025788    -7.5228856188    -1.4775149536
   23      C      -1.4098692674    -6.5437149006    -1.9955593966
   24      H      -1.2443960998    -7.2791764212    -2.7771737405
   25      C      -0.5230583074    -5.4865555490    -1.6768582413
   26      H       0.3669284512    -5.3062480352    -2.2730618727
   27      C      -0.9001494794    -4.5375077676    -0.7271822141
   28      H      -0.2945639842    -3.6396374968    -0.6501031328
   29      C      -3.0238040812     0.1706432805    -3.0874520801
   30      C      -4.9722050401    -1.2253347643    -3.4425478446
   31      C      -8.0994842714     1.7707326237    -2.0852391783
   32      C      -3.0293242653     1.8910874206     1.6414223619
   33      C      -8.4518197498     0.3204696860     1.1177080773
   34      C      -3.6674088266    -1.0679357709    -3.0539279812
   35      C      -5.6814367429     2.1703707718     2.5650663494
   36      C      -6.0737535718     2.0050655001    -3.3559166495
   37      C      -6.2127730041    -2.7865738927    -0.0466178525
   38      C      -3.6560021787     0.9098930448     2.4091185191
   39      C      -3.8937682376    -2.9078106540     0.7441315011
   40      C      -6.2163206200    -2.3794886772     1.3057811425
   41      C      -5.4793187998    -0.2879001650     2.9226951207
   42      C      -7.0198245032     2.0019567084     2.1688783810
   43      C      -4.5731176966    -2.5853768436    -1.6973292809
   44      C      -8.0776593519     2.5232659477     0.0558066571
   45      C      -2.6363020736    -2.1207289171     0.4969105754
   46      C      -2.4824228303    -0.8247777651     1.2209974418
   47      C      -8.6527766994     1.2142085209     0.0179425571
   48      C      -4.4307453962     3.8147449169    -0.9009998396
   49      C      -6.5307031705     3.4606631719    -1.5306072286
   50      C      -5.7248785437     3.0906581775    -2.5746287681
   51      C      -5.1236332717     1.1176481539    -3.7872064232
   52      C      -1.9970159029     0.2173675643     0.3869877133
   53      C      -4.8959091904    -3.0141889461    -0.4098919690
   54      C      -5.7248309253    -0.1431297899    -3.9421043181
   55      C      -4.9613606018     1.0294982932     2.8924030851
   56      C      -5.5725513975    -2.1790626796    -2.6152677743
   57      C      -7.1996454377    -1.4331272719     1.7262515856
   58      C      -2.4029190000     2.4428424733    -0.3892764846
   59      C      -7.2602268551     1.3519333913    -3.1454585858
   60      C      -4.8678983989    -2.2964727222     1.7897841021
   61      C      -3.4035348017     2.3811582054    -2.6667700781
   62      C      -6.8409799864    -0.4219167966     2.6213658066
   63      C      -7.2075023336    -2.2919462747    -0.9186803965
   64      C      -6.0940494434     3.6247980748     0.8028921300
   65      C      -5.1094138538     3.1823192031     1.7245895878
   66      C      -8.3074864188    -1.4598892338    -0.5165981994
   67      C      -2.2156036776     1.5364015767     0.6034817291
   68      C      -3.3629821819    -0.4095691724     2.2420983442
   69      C      -3.4138110169     3.3637814968    -0.0340728174
   70      C      -2.4672638917    -1.5872420296    -0.9247992522
   71      C      -7.6715149131    -0.9625983425    -2.6705007073
   72      C      -4.4643231506    -1.1622002824     2.5596191827
   73      C      -8.1922167478    -1.0127047699     0.7789896819
   74      C      -2.4356601220     1.9256841641    -1.7418792726
   75      C      -8.6531677039     0.7378178414    -1.2726564385
   76      C      -3.8006266225     1.3186017742    -3.4526917768
   77      C      -7.6821258805     2.7710294863    -1.2715683848
   78      C      -6.9172883569    -2.0539736651    -2.2675016911
   79      C      -8.4979383240    -0.5532975003    -1.5966039867
   80      C      -3.3449474577    -1.9009016814    -1.9478120482
   81      C      -2.0142906773    -0.2790196958    -0.9145234354
   82      C      -5.7286135390     3.9354573156    -0.5486338357
   83      C      -7.0270538753     0.0249712744    -3.4385386117
   84      C      -7.6568960383     0.7242378181     2.2277281620
   85      C      -3.7381077242     2.9973365708     1.2763007026
   86      C      -7.2666107943     2.9192121853     1.0864806183
   87      C      -2.2044864793     0.5629629561    -2.0218715157
   88      C      -4.3633677423     3.3161630416    -2.2042858272
   89      O       3.0042122939     6.1573478348     2.6379752543
   90      C       4.2447822703     6.7431811615     2.0235995979
   91      H       5.0010998591     6.9058786056     2.8017334208
   92      H       4.0644179901     7.7560114089     1.6449472293
   93      H       4.7123377931     6.1533075832     1.2247979987
   94      O       1.7858829764     6.0847758350     0.6646876475
   95      C       1.8820790666     5.9232023297     1.8573729851
   96      C       0.7263945460     5.3138545818     2.6725359205
   97      H      -0.1764089409     5.7940086053     2.2729161292
   98      H       0.8355674479     5.7051641531     3.6912071613
   99      C       0.6018842052     3.7635037903     2.7865297727
  100      H      -0.1751560620     3.4787727718     3.5080203618
  101      H       0.3689284657     3.2746751628     1.8323708780
  102      C       1.9250312226     3.2109495325     3.2577004027
  103      H       2.7272178830     3.7709564820     2.7619083309
  104      H       2.1102812455     3.3634704101     4.3277353605
  105      C       2.2164643547     1.7894017179     2.8623252133
  106      C       1.5931780572     0.7658901769     3.8012923676
  107      C       2.3207143638     0.4119724816     4.9909373515
  108      H       3.2458820765     0.8842731117     5.3110651669
  109      C       1.8198703713    -0.5546412972     5.8308362131
  110      H       2.3898410033    -0.9554234742     6.6641291539
  111      C       0.5677601270    -1.0966484195     5.6586089925
  112      H       0.0834265751    -1.7954820598     6.3339715275
  113      C      -0.2264258189    -0.6313338921     4.5712116070
  114      H      -1.2311263280    -1.0051489629     4.3960083543
  115      C       0.3289528531     0.2088250059     3.6394806604
  116      H      -0.3038100847     0.4426565546     2.7886487902
  117      C       5.9725957259    -2.0328804409     1.5185863174
  118      C       3.9270225832    -2.9969702412     0.7168641868
  119      C       5.1081620902    -2.1840354285    -3.6518432256
  120      C       6.8973627194     2.6315762987    -0.0899631321
  121      C       3.2409344362     0.7675655492    -3.8653743859
  122      C       4.5470093105    -2.2029119938     1.6345416671
  123      C       5.8871852807     2.9350203264    -2.6315550081
  124      C       6.3936118031    -3.0806520128    -1.8313016204
  125      C       1.4166483121     0.1356851155    -0.3712633036
  126      C       5.6510115897     3.2888959394    -0.2258702744
  127      C       2.3354601551     1.3629151093     1.4319178684
  128      C       1.7270739132     1.4052422993    -0.7836435931
  129      C       3.7373117606     3.3670316395    -1.4765839812
  130      C       5.2038311265     2.1921894690    -3.6583302597
  131      C       2.6051293113    -1.1934179115     1.3216634692
  132      C       5.4274150105    -0.0908803182    -4.3257833245
  133      C       3.5916644501     1.3740467773     2.2986524617
  134      C       4.7434923180     2.2416588185     1.7582943317
  135      C       4.0939658924    -0.2781047628    -4.2101785816
  136      C       8.3381384949    -0.1126523600    -1.6660533051
  137      C       7.2154795332    -1.2428663619    -3.1723435048
  138      C       7.3939263256    -2.1337730308    -2.1259659201
  139      C       6.0349061414    -3.2714440047    -0.5503911379
  140      C       5.9447419964     1.5818976155     1.9011941746
  141      C       1.9020517693     0.0428631733     0.9169042207
  142      C       4.6628752216    -3.4935823573    -0.4192472957
  143      C       5.1353697350     3.4732761344    -1.5375266400
  144      C       2.7002716174    -2.3572008368     0.4658578579
  145      C       2.1202370753     1.6326477023    -2.1605860431
  146      C       7.8500009285     0.6685452819     0.5423395405
  147      C       5.2395064367    -3.0815703072    -2.6109816574
  148      C       2.3284480075     2.2372090707     0.2062662463
  149      C       7.7916247054    -1.6935207747     0.2004138747
  150      C       3.1070901318     2.5734627767    -2.4553843483
  151      C       1.6180325390    -0.9772855747    -1.2292531847
  152      C       7.1293885228     1.1757291810    -3.2859874118
  153      C       7.0914484946     2.2900138296    -2.4516252145
  154      C       2.0411161115    -0.8083577346    -2.5029912565
  155      C       7.0070561686     1.7341250359     0.9728809666
  156      C       4.5929567673     3.0360830253     0.6248644805
  157      C       8.1808899524     0.9682116141    -0.7665640248
  158      C       4.3106958027     0.0890434476     2.5368925858
  159      C       2.9377468601    -2.8061609402    -1.9692079184
  160      C       3.4276985331     3.0788186844    -0.1666030875
  161      C       2.1751132462     0.5085778874    -3.0072534258
  162      C       7.6555591858    -0.5842796282     1.1280281552
  163      C       3.8967659428    -1.5792568165    -3.8619365493
  164      C       6.7329014007    -2.5947836680     0.4925117371
  165      C       6.0824140106    -1.2744755653    -3.9827707869
  166      C       2.2306073094    -2.2167361104    -0.8877806088
  167      C       2.8341141494    -1.8684853055    -2.9611840599
  168      C       3.7945975561    -1.1059406371     2.0273029105
  169      C       5.6867202955     0.2923933752     2.3771822166
  170      C       7.8022193452    -0.0071088482    -2.9402449045
  171      C       4.1987877743    -3.3545421327    -1.7462799468
  172      C       3.8377630556     2.0196877477    -3.5813680496
  173      C       7.5702456643     2.1184744679    -1.1614765728
  174      C       5.9967778077     1.1241504693    -4.0443953524
  175      C       6.5454128766    -0.7878334771     1.9602961426
  176      C       8.1488539864    -1.4700186137    -1.1586814217
 ----------------------------------------------------------------
 Molecular Point Group                 C1    NOp =  1
 Largest Abelian Subgroup              C1    NOp =  1
 Nuclear Repulsion Energy = 36088.9995676000 hartrees
 There are      462 alpha and      462 beta electrons
 Requested basis set is 6-31G(d,p)
 There are 676 shells and 2360 basis functions

 Total QAlloc Memory Limit  20000 MB
 Mega-Array Size      4888 MB
 MEM_STATIC part      5000 MB
 A cutoff of  1.0D-08 yielded  40459 shell pairs
 There are    555109 function pairs
 
 -------------------------------------------------------
 OpenMP Integral Computing Module                       
 Release: version 1.0, May 2013, Q-Chem Inc. Pittsburgh 
 -------------------------------------------------------
 Integral Job Info:
 Integral job number is                      11
 Integral operator is                         1
 short-range coefficients                     0
 long-range coefficients              100000000
 Omega coefficients                           0
 if combine SR and LR in K                    0
 Integral screening is                        0
 Integral computing path is                   2
 max size of driver memory is            800000
 size of driver memory is                593474
 size of scratch memory is              2260544
 max col of scratch BK array               1296
 max len of scratch array in speh3          155
 max len of scratch index in speh4           18
 max int batch size is                      520
 min int batch size is                       52
 fixed nKL is                                52
 max L of basis functions is                  2
 order of int derivative is                   0
 number of shells is                        676
 number of basis is                        2360
 number of cartesian basis is              2360
 number of contracted shell pairs         40459
 number of primitive shell pairs         119854
 maxK2 (contraction) of shell pair           36
 max number of K2 of shell pair               1
 max number of CS2 of shell pair           7515
 max number of PS2 of shell pair          35520
 mem total for path MDJ                 1569352
 -------------------------------------------------------
 Smallest overlap matrix eigenvalue = 2.43E-04

 Scale SEOQF with 1.000000e-02/1.000000e-02/1.000000e-02

 Standard Electronic Orientation quadrupole field applied
 Nucleus-field energy     =     0.0000000699 hartrees
 Guess from superposition of atomic densities
 Warning:  Energy on first SCF cycle will be non-variational
 A restricted hybrid HF-DFT SCF calculation will be
 performed using Pulay DIIS extrapolation
 Exchange:     0.2000 Hartree-Fock + 0.0800 Slater + 0.7200 B88
 Correlation:  0.1900 VWN1RPA + 0.8100 LYP
 Using SG-1 standard quadrature grid
 SCF converges when DIIS error is below 1.0E-05
 using 16 threads for integral computing 
 -------------------------------------------------------
 OpenMP BLAS3 based DFT computing Module                
 Release: version 1.0, May 2013, Q-Chem Inc. Pittsburgh 
 -------------------------------------------------------
 ---------------------------------------
  Cycle       Energy         DIIS Error
 ---------------------------------------
    1   -5859.3440638021      1.85E-02
    2   -5802.9986016533      1.31E-03
    3   -5802.0441497280      1.87E-03
    4   -5803.8193785745      7.05E-04
    5   -5804.0984933345      3.31E-04
    6   -5804.1691651732      1.53E-04
    7   -5804.1842447772      5.70E-05
    8   -5804.1856699160      3.66E-05
    9   -5804.1866948595      9.86E-06 Convergence criterion met
 ---------------------------------------
 SCF time:  CPU 8872.86 s  wall 910.28 s
 SCF   energy in the final basis set = -5804.1866948595
 Total energy in the final basis set = -5804.1866948595
 
 --------------------------------------------------------------
 
                    Orbital Energies (a.u.)
 --------------------------------------------------------------
 
 Alpha MOs
 -- Occupied --
-19.198 -19.194 -19.139 -19.129 -10.320 -10.314 -10.253 -10.252
-10.251 -10.247 -10.243 -10.240 -10.237 -10.236 -10.235 -10.231
-10.227 -10.226 -10.224 -10.223 -10.223 -10.222 -10.222 -10.222
-10.221 -10.220 -10.220 -10.220 -10.219 -10.219 -10.219 -10.219
-10.218 -10.218 -10.218 -10.218 -10.218 -10.217 -10.217 -10.216
-10.216 -10.216 -10.216 -10.216 -10.216 -10.216 -10.216 -10.216
-10.216 -10.216 -10.215 -10.215 -10.215 -10.215 -10.215 -10.215
-10.215 -10.215 -10.215 -10.214 -10.214 -10.214 -10.214 -10.214
-10.213 -10.213 -10.213 -10.213 -10.213 -10.213 -10.212 -10.212
-10.212 -10.212 -10.212 -10.212 -10.212 -10.212 -10.212 -10.212
-10.211 -10.211 -10.211 -10.211 -10.211 -10.211 -10.210 -10.210
-10.210 -10.210 -10.210 -10.209 -10.209 -10.209 -10.209 -10.209
-10.208 -10.208 -10.208 -10.208 -10.208 -10.208 -10.208 -10.208
-10.208 -10.207 -10.207 -10.207 -10.207 -10.207 -10.207 -10.207
-10.206 -10.206 -10.206 -10.206 -10.205 -10.205 -10.205 -10.204
-10.204 -10.204 -10.204 -10.204 -10.203 -10.203 -10.203 -10.202
-10.202 -10.201 -10.201 -10.201 -10.201 -10.200 -10.200 -10.199
-10.199 -10.198 -10.197 -10.197 -10.197 -10.196 -10.196 -10.196
-10.195 -10.195 -10.195 -10.195  -1.096  -1.082  -1.011  -1.009
 -0.986  -0.986  -0.971  -0.967  -0.964  -0.963  -0.961  -0.959
 -0.935  -0.935  -0.932  -0.929  -0.927  -0.926  -0.925  -0.923
 -0.919  -0.918  -0.901  -0.899  -0.892  -0.890  -0.885  -0.884
 -0.877  -0.874  -0.857  -0.853  -0.844  -0.842  -0.841  -0.839
 -0.837  -0.832  -0.823  -0.821  -0.806  -0.802  -0.801  -0.799
 -0.796  -0.795  -0.795  -0.794  -0.792  -0.790  -0.785  -0.781
 -0.772  -0.769  -0.768  -0.766  -0.766  -0.765  -0.764  -0.761
 -0.756  -0.749  -0.747  -0.740  -0.738  -0.731  -0.719  -0.718
 -0.714  -0.714  -0.713  -0.712  -0.712  -0.711  -0.710  -0.707
 -0.706  -0.706  -0.705  -0.703  -0.702  -0.699  -0.674  -0.672
 -0.662  -0.657  -0.656  -0.656  -0.651  -0.647  -0.632  -0.630
 -0.630  -0.626  -0.625  -0.625  -0.622  -0.621  -0.619  -0.616
 -0.616  -0.614  -0.613  -0.611  -0.611  -0.609  -0.608  -0.607
 -0.604  -0.604  -0.601  -0.600  -0.567  -0.566  -0.564  -0.563
 -0.562  -0.560  -0.558  -0.557  -0.557  -0.556  -0.553  -0.553
 -0.538  -0.537  -0.536  -0.529  -0.527  -0.527  -0.524  -0.524
 -0.523  -0.523  -0.521  -0.520  -0.516  -0.514  -0.513  -0.509
 -0.507  -0.506  -0.500  -0.499  -0.492  -0.490  -0.487  -0.486
 -0.486  -0.484  -0.483  -0.479  -0.478  -0.477  -0.476  -0.474
 -0.473  -0.470  -0.470  -0.469  -0.468  -0.467  -0.467  -0.466
 -0.465  -0.464  -0.462  -0.462  -0.461  -0.460  -0.459  -0.459
 -0.457  -0.456  -0.454  -0.451  -0.451  -0.448  -0.446  -0.444
 -0.442  -0.441  -0.440  -0.440  -0.437  -0.434  -0.433  -0.432
 -0.431  -0.430  -0.430  -0.428  -0.425  -0.424  -0.424  -0.423
 -0.423  -0.421  -0.420  -0.419  -0.419  -0.418  -0.417  -0.417
 -0.416  -0.416  -0.415  -0.415  -0.413  -0.413  -0.412  -0.412
 -0.411  -0.411  -0.410  -0.408  -0.405  -0.402  -0.401  -0.397
 -0.394  -0.392  -0.391  -0.389  -0.388  -0.387  -0.384  -0.382
 -0.380  -0.376  -0.375  -0.372  -0.371  -0.370  -0.369  -0.367
 -0.367  -0.364  -0.363  -0.360  -0.360  -0.359  -0.358  -0.358
 -0.357  -0.355  -0.355  -0.353  -0.352  -0.351  -0.350  -0.349
 -0.349  -0.348  -0.347  -0.346  -0.344  -0.343  -0.343  -0.342
 -0.341  -0.340  -0.339  -0.337  -0.336  -0.336  -0.335  -0.334
 -0.333  -0.331  -0.330  -0.328  -0.327  -0.326  -0.324  -0.322
 -0.314  -0.307  -0.303  -0.300  -0.290  -0.283  -0.272  -0.271
 -0.269  -0.269  -0.268  -0.266  -0.265  -0.265  -0.265  -0.263
 -0.262  -0.261  -0.259  -0.257  -0.256  -0.254  -0.253  -0.252
 -0.250  -0.248  -0.244  -0.241  -0.223  -0.220  -0.212  -0.209
 -0.208  -0.207  -0.206  -0.204  -0.199  -0.191
 -- Virtual --
 -0.126  -0.120  -0.118  -0.117  -0.106  -0.105  -0.078  -0.075
 -0.073  -0.073  -0.059  -0.056  -0.055  -0.051  -0.024  -0.022
 -0.022  -0.019  -0.017  -0.015  -0.013  -0.013  -0.012  -0.011
 -0.009  -0.008  -0.007  -0.005  -0.003   0.001   0.002   0.004
  0.007   0.012   0.035   0.037   0.043   0.044   0.047   0.047
  0.055   0.056   0.059   0.063   0.064   0.066   0.067   0.068
  0.071   0.073   0.076   0.080   0.081   0.085   0.087   0.090
  0.095   0.097   0.099   0.099   0.101   0.102   0.104   0.105
  0.108   0.109   0.110   0.115   0.116   0.120   0.120   0.122
  0.124   0.126   0.127   0.131   0.132   0.133   0.134   0.136
  0.137   0.140   0.143   0.144   0.147   0.147   0.149   0.156
  0.157   0.160   0.162   0.164   0.165   0.167   0.169   0.171
  0.171   0.175   0.178   0.180   0.180   0.181   0.182   0.182
  0.185   0.186   0.186   0.189   0.190   0.192   0.193   0.194
  0.195   0.198   0.198   0.201   0.203   0.204   0.207   0.211
  0.214   0.215   0.216   0.217   0.219   0.220   0.221   0.223
  0.223   0.225   0.226   0.228   0.229   0.229   0.232   0.234
  0.234   0.236   0.240   0.240   0.241   0.242   0.243   0.246
  0.246   0.247   0.248   0.250   0.253   0.256   0.257   0.261
  0.265   0.272   0.273   0.275   0.276   0.278   0.281   0.285
  0.286   0.287   0.290   0.292   0.296   0.304   0.306   0.306
  0.307   0.309   0.312   0.313   0.314   0.317   0.321   0.322
  0.323   0.324   0.326   0.329   0.330   0.331   0.334   0.336
  0.337   0.341   0.342   0.343   0.348   0.350   0.352   0.353
  0.354   0.356   0.356   0.368   0.373   0.375   0.384   0.388
  0.394   0.397   0.400   0.405   0.407   0.409   0.409   0.410
  0.412   0.415   0.418   0.420   0.420   0.423   0.425   0.425
  0.429   0.430   0.431   0.435   0.440   0.441   0.446   0.447
  0.451   0.454   0.455   0.459   0.460   0.461   0.463   0.464
  0.466   0.470   0.470   0.472   0.473   0.474   0.475   0.475
  0.476   0.478   0.480   0.482   0.484   0.484   0.485   0.486
  0.487   0.489   0.490   0.492   0.494   0.494   0.494   0.495
  0.496   0.496   0.500   0.500   0.502   0.503   0.504   0.506
  0.507   0.508   0.508   0.509   0.510   0.511   0.512   0.513
  0.515   0.515   0.516   0.516   0.518   0.519   0.520   0.520
  0.521   0.522   0.523   0.524   0.524   0.525   0.526   0.527
  0.528   0.529   0.529   0.530   0.530   0.532   0.532   0.533
  0.534   0.535   0.535   0.536   0.537   0.539   0.540   0.540
  0.542   0.543   0.544   0.544   0.545   0.545   0.546   0.546
  0.547   0.548   0.549   0.550   0.550   0.551   0.552   0.553
  0.554   0.555   0.555   0.556   0.557   0.558   0.559   0.559
  0.561   0.562   0.563   0.563   0.564   0.565   0.567   0.567
  0.568   0.568   0.570   0.570   0.571   0.572   0.573   0.573
  0.574   0.574   0.575   0.577   0.578   0.579   0.580   0.582
  0.583   0.584   0.585   0.585   0.586   0.587   0.588   0.588
  0.589   0.591   0.591   0.592   0.594   0.595   0.595   0.596
  0.597   0.598   0.599   0.600   0.601   0.603   0.604   0.604
  0.606   0.607   0.608   0.609   0.609   0.611   0.613   0.613
  0.614   0.615   0.616   0.617   0.620   0.620   0.622   0.624
  0.625   0.626   0.627   0.628   0.629   0.630   0.630   0.631
  0.633   0.633   0.634   0.635   0.636   0.637   0.638   0.639
  0.639   0.640   0.641   0.642   0.643   0.644   0.645   0.646
  0.646   0.647   0.648   0.650   0.651   0.652   0.653   0.654
  0.656   0.656   0.658   0.658   0.659   0.660   0.661   0.661
  0.663   0.664   0.664   0.666   0.666   0.667   0.667   0.669
  0.670   0.671   0.671   0.672   0.673   0.674   0.674   0.676
  0.677   0.677   0.678   0.679   0.680   0.681   0.682   0.684
  0.684   0.684   0.687   0.688   0.689   0.689   0.691   0.692
  0.692   0.694   0.695   0.696   0.698   0.700   0.701   0.701
  0.703   0.704   0.705   0.706   0.707   0.708   0.709   0.710
  0.711   0.713   0.715   0.715   0.716   0.718   0.719   0.720
  0.721   0.722   0.724   0.725   0.726   0.727   0.729   0.730
  0.732   0.734   0.735   0.736   0.737   0.739   0.740   0.742
  0.743   0.744   0.744   0.746   0.748   0.749   0.749   0.752
  0.754   0.755   0.756   0.757   0.758   0.760   0.762   0.763
  0.765   0.767   0.767   0.768   0.770   0.771   0.773   0.774
  0.776   0.777   0.778   0.779   0.780   0.781   0.782   0.783
  0.783   0.784   0.786   0.787   0.787   0.789   0.791   0.791
  0.792   0.794   0.796   0.797   0.797   0.800   0.800   0.801
  0.802   0.802   0.803   0.805   0.806   0.807   0.808   0.808
  0.810   0.811   0.812   0.812   0.813   0.814   0.815   0.816
  0.816   0.817   0.818   0.819   0.819   0.820   0.821   0.821
  0.823   0.824   0.825   0.826   0.827   0.828   0.829   0.830
  0.831   0.832   0.833   0.834   0.835   0.838   0.840   0.840
  0.842   0.843   0.847   0.848   0.850   0.852   0.854   0.855
  0.856   0.857   0.861   0.862   0.864   0.866   0.869   0.870
  0.874   0.878   0.882   0.888   0.892   0.894   0.896   0.897
  0.898   0.902   0.904   0.909   0.914   0.916   0.919   0.919
  0.920   0.923   0.925   0.926   0.928   0.929   0.930   0.934
  0.936   0.936   0.938   0.939   0.940   0.943   0.944   0.945
  0.945   0.948   0.949   0.950   0.955   0.958   0.959   0.961
  0.963   0.965   0.968   0.970   0.973   0.973   0.977   0.978
  0.982   0.984   0.989   0.993   0.994   0.996   0.999   1.001
  1.002   1.004   1.006   1.009   1.011   1.012   1.014   1.015
  1.017   1.019   1.019   1.021   1.022   1.023   1.025   1.027
  1.028   1.030   1.033   1.034   1.035   1.036   1.038   1.039
  1.041   1.041   1.043   1.045   1.046   1.047   1.050   1.051
  1.055   1.056   1.059   1.060   1.060   1.063   1.066   1.066
  1.067   1.068   1.070   1.073   1.074   1.075   1.078   1.079
  1.081   1.082   1.085   1.086   1.089   1.090   1.091   1.092
  1.094   1.097   1.098   1.099   1.101   1.104   1.105   1.107
  1.108   1.109   1.110   1.112   1.115   1.117   1.120   1.123
  1.125   1.128   1.131   1.133   1.133   1.137   1.138   1.142
  1.143   1.146   1.147   1.148   1.152   1.154   1.155   1.156
  1.157   1.160   1.161   1.161   1.164   1.167   1.167   1.168
  1.169   1.172   1.173   1.175   1.175   1.179   1.180   1.181
  1.183   1.186   1.187   1.189   1.190   1.191   1.193   1.194
  1.196   1.198   1.200   1.201   1.203   1.204   1.206   1.208
  1.209   1.210   1.214   1.216   1.219   1.221   1.226   1.228
  1.230   1.233   1.236   1.237   1.242   1.244   1.246   1.249
  1.251   1.254   1.255   1.258   1.259   1.260   1.262   1.264
  1.267   1.270   1.272   1.273   1.273   1.276   1.278   1.279
  1.281   1.282   1.284   1.289   1.289   1.291   1.294   1.297
  1.299   1.302   1.304   1.307   1.307   1.311   1.314   1.317
  1.317   1.320   1.324   1.325   1.329   1.333   1.337   1.338
  1.339   1.340   1.343   1.345   1.347   1.348   1.350   1.351
  1.354   1.355   1.360   1.361   1.363   1.365   1.368   1.372
  1.374   1.377   1.379   1.381   1.384   1.387   1.389   1.390
  1.392   1.395   1.396   1.400   1.402   1.405   1.407   1.409
  1.411   1.413   1.419   1.421   1.425   1.426   1.427   1.429
  1.431   1.433   1.436   1.439   1.442   1.444   1.446   1.450
  1.453   1.457   1.459   1.462   1.463   1.465   1.467   1.468
  1.469   1.471   1.471   1.474   1.475   1.476   1.480   1.482
  1.484   1.486   1.488   1.490   1.493   1.496   1.496   1.499
  1.501   1.503   1.505   1.507   1.512   1.512   1.516   1.520
  1.524   1.527   1.531   1.535   1.539   1.540   1.541   1.546
  1.547   1.549   1.551   1.552   1.554   1.557   1.557   1.560
  1.562   1.563   1.564   1.568   1.570   1.573   1.574   1.575
  1.577   1.581   1.583   1.588   1.591   1.592   1.595   1.596
  1.599   1.600   1.602   1.605   1.608   1.613   1.616   1.621
  1.627   1.629   1.632   1.635   1.637   1.642   1.643   1.647
  1.652   1.653   1.659   1.661   1.664   1.668   1.669   1.672
  1.675   1.681   1.685   1.688   1.691   1.695   1.699   1.701
  1.701   1.704   1.704   1.708   1.710   1.715   1.716   1.718
  1.721   1.723   1.724   1.728   1.730   1.734   1.737   1.740
  1.740   1.743   1.744   1.744   1.746   1.747   1.748   1.748
  1.750   1.752   1.752   1.757   1.760   1.762   1.763   1.764
  1.765   1.765   1.767   1.767   1.769   1.771   1.773   1.775
  1.776   1.777   1.779   1.781   1.782   1.783   1.784   1.785
  1.786   1.787   1.787   1.789   1.791   1.793   1.794   1.795
  1.796   1.798   1.799   1.800   1.801   1.802   1.803   1.804
  1.805   1.806   1.807   1.809   1.810   1.810   1.812   1.814
  1.814   1.816   1.817   1.818   1.821   1.824   1.826   1.827
  1.828   1.830   1.833   1.835   1.837   1.840   1.842   1.843
  1.844   1.846   1.850   1.851   1.852   1.854   1.857   1.858
  1.859   1.861   1.864   1.867   1.868   1.870   1.870   1.873
  1.874   1.876   1.879   1.879   1.880   1.884   1.886   1.887
  1.889   1.890   1.891   1.894   1.895   1.899   1.901   1.904
  1.907   1.908   1.909   1.912   1.916   1.919   1.922   1.923
  1.924   1.926   1.929   1.933   1.935   1.936   1.939   1.941
  1.942   1.944   1.946   1.950   1.951   1.952   1.953   1.955
  1.957   1.960   1.960   1.962   1.965   1.966   1.971   1.973
  1.974   1.976   1.979   1.981   1.985   1.986   1.987   1.991
  1.991   1.993   1.996   1.996   1.997   1.998   2.000   2.001
  2.004   2.006   2.007   2.009   2.010   2.011   2.012   2.013
  2.013   2.016   2.017   2.019   2.020   2.021   2.021   2.022
  2.024   2.025   2.025   2.027   2.028   2.030   2.031   2.032
  2.033   2.035   2.036   2.038   2.038   2.040   2.042   2.042
  2.045   2.046   2.047   2.048   2.049   2.051   2.051   2.053
  2.054   2.056   2.057   2.057   2.059   2.060   2.062   2.064
  2.065   2.067   2.068   2.069   2.071   2.071   2.073   2.074
  2.076   2.077   2.079   2.080   2.083   2.083   2.085   2.086
  2.088   2.090   2.091   2.091   2.092   2.094   2.096   2.097
  2.101   2.103   2.104   2.107   2.107   2.109   2.110   2.112
  2.113   2.116   2.118   2.120   2.121   2.123   2.125   2.126
  2.128   2.130   2.132   2.133   2.134   2.138   2.141   2.148
  2.149   2.150   2.152   2.160   2.163   2.169   2.171   2.174
  2.178   2.184   2.191   2.191   2.194   2.197   2.199   2.205
  2.209   2.214   2.215   2.221   2.223   2.225   2.228   2.232
  2.236   2.238   2.239   2.240   2.244   2.247   2.250   2.252
  2.254   2.257   2.259   2.259   2.260   2.264   2.265   2.267
  2.269   2.272   2.273   2.275   2.276   2.280   2.282   2.282
  2.284   2.289   2.290   2.295   2.295   2.300   2.301   2.305
  2.307   2.308   2.309   2.315   2.318   2.318   2.320   2.322
  2.324   2.326   2.330   2.333   2.334   2.337   2.339   2.340
  2.345   2.346   2.346   2.350   2.356   2.357   2.358   2.360
  2.361   2.364   2.365   2.369   2.370   2.372   2.376   2.376
  2.378   2.380   2.382   2.383   2.385   2.386   2.388   2.390
  2.391   2.391   2.394   2.395   2.397   2.398   2.401   2.403
  2.404   2.406   2.409   2.409   2.411   2.412   2.414   2.416
  2.417   2.419   2.420   2.421   2.422   2.424   2.426   2.428
  2.429   2.432   2.435   2.438   2.440   2.445   2.445   2.447
  2.449   2.451   2.452   2.455   2.457   2.460   2.462   2.467
  2.470   2.473   2.475   2.476   2.479   2.480   2.482   2.483
  2.485   2.487   2.488   2.492   2.493   2.495   2.497   2.499
  2.500   2.501   2.503   2.503   2.508   2.510   2.510   2.511
  2.514   2.517   2.519   2.522   2.523   2.525   2.527   2.528
  2.530   2.532   2.534   2.535   2.536   2.540   2.546   2.547
  2.547   2.550   2.556   2.560   2.561   2.568   2.570   2.571
  2.574   2.576   2.580   2.582   2.585   2.591   2.592   2.594
  2.595   2.600   2.603   2.605   2.607   2.609   2.612   2.613
  2.615   2.617   2.618   2.620   2.621   2.622   2.627   2.628
  2.629   2.631   2.632   2.633   2.635   2.637   2.639   2.640
  2.641   2.643   2.643   2.645   2.647   2.648   2.649   2.651
  2.652   2.655   2.657   2.660   2.661   2.662   2.664   2.666
  2.668   2.670   2.671   2.673   2.674   2.676   2.679   2.681
  2.682   2.683   2.684   2.686   2.687   2.691   2.692   2.696
  2.697   2.700   2.702   2.704   2.709   2.710   2.711   2.713
  2.714   2.716   2.719   2.721   2.723   2.725   2.728   2.728
  2.732   2.735   2.735   2.738   2.741   2.745   2.748   2.749
  2.752   2.755   2.758   2.759   2.762   2.762   2.766   2.767
  2.769   2.770   2.770   2.774   2.777   2.780   2.781   2.784
  2.786   2.789   2.790   2.794   2.796   2.800   2.800   2.804
  2.807   2.809   2.812   2.814   2.815   2.820   2.821   2.822
  2.827   2.827   2.831   2.836   2.837   2.839   2.843   2.845
  2.848   2.849   2.856   2.857   2.859   2.860   2.865   2.866
  2.868   2.871   2.871   2.873   2.875   2.878   2.878   2.880
  2.883   2.884   2.887   2.889   2.893   2.894   2.896   2.900
  2.900   2.900   2.903   2.905   2.907   2.909   2.911   2.913
  2.914   2.916   2.917   2.918   2.920   2.923   2.925   2.926
  2.928   2.930   2.931   2.932   2.935   2.937   2.938   2.941
  2.944   2.948   2.950   2.951   2.956   2.959   2.961   2.963
  2.964   2.964   2.967   2.969   2.971   2.980   2.981   2.985
  2.988   2.990   2.998   3.000   3.003   3.004   3.007   3.012
  3.013   3.017   3.019   3.021   3.025   3.026   3.030   3.033
  3.036   3.037   3.039   3.041   3.045   3.047   3.050   3.052
  3.056   3.057   3.063   3.067   3.069   3.071   3.075   3.077
  3.078   3.081   3.085   3.089   3.090   3.093   3.096   3.106
  3.110   3.115   3.120   3.125   3.130   3.136   3.155   3.156
  3.158   3.164   3.169   3.174   3.183   3.188   3.192   3.197
  3.200   3.206   3.209   3.215   3.218   3.229   3.238   3.242
  3.247   3.249   3.252   3.256   3.262   3.270   3.277   3.289
  3.305   3.313   3.317   3.323   3.332   3.334   3.337   3.339
  3.340   3.349   3.357   3.360   3.365   3.370   3.385   3.392
  3.408   3.414   3.421   3.423   3.432   3.441   3.455   3.459
  3.460   3.465   3.470   3.474   3.484   3.487   3.498   3.501
  3.507   3.520   3.525   3.528   3.536   3.537   3.542   3.558
  3.563   3.577   3.580   3.582   3.592   3.599   3.601   3.609
  3.625   3.626   3.708   3.712   3.856   3.879   3.991   4.025
  4.060   4.072   4.089   4.091   4.096   4.098   4.102   4.108
  4.110   4.113   4.114   4.116   4.124   4.126   4.128   4.130
  4.134   4.135   4.147   4.151   4.155   4.158   4.160   4.162
  4.167   4.169   4.174   4.178   4.180   4.187   4.191   4.194
  4.198   4.205   4.211   4.220   4.225   4.232   4.232   4.250
  4.255   4.256   4.257   4.259   4.261   4.264   4.267   4.270
  4.274   4.277   4.285   4.288   4.290   4.298   4.306   4.309
  4.314   4.323   4.329   4.369   4.381   4.386   4.392   4.396
  4.400   4.406   4.408   4.414   4.416   4.417   4.420   4.425
  4.427   4.431   4.435   4.439   4.441   4.450   4.479   4.481
  4.491   4.503   4.518   4.533   4.538   4.542   4.554   4.555
  4.560   4.570   4.625   4.627   4.632   4.637   4.640   4.647
  4.649   4.655   4.673   4.695   4.699   4.703   4.704   4.707
  4.711   4.715   4.715   4.726   4.748   4.771   4.800   4.825
  4.838   4.854   4.860   4.869   4.874   4.887   4.891   4.895
  4.913   4.915   4.951   4.969   4.970   4.979   4.988   4.995
  5.001   5.004   5.013   5.029   5.157   5.160   5.189   5.199
  5.202   5.209   5.220   5.226   5.315   5.340   5.347   5.351
  5.359   5.370
 --------------------------------------------------------------
 
          Ground-State Mulliken Net Atomic Charges

     Atom                 Charge (a.u.)
  ----------------------------------------
      1 O                    -0.473958
      2 C                    -0.089622
      3 H                     0.142873
      4 H                     0.131262
      5 H                     0.123947
      6 O                    -0.479260
      7 C                     0.621227
      8 C                    -0.269164
      9 H                     0.109765
     10 H                     0.131661
     11 C                    -0.181206
     12 H                     0.117728
     13 H                     0.134999
     14 C                    -0.191128
     15 H                     0.106655
     16 H                     0.105828
     17 C                     0.005681
     18 C                     0.080382
     19 C                    -0.108702
     20 H                     0.094556
     21 C                    -0.091785
     22 H                     0.087292
     23 C                    -0.083566
     24 H                     0.094984
     25 C                    -0.096070
     26 H                     0.095685
     27 C                    -0.101373
     28 H                     0.101348
     29 C                    -0.037964
     30 C                     0.016802
     31 C                    -0.038426
     32 C                    -0.000028
     33 C                    -0.016516
     34 C                     0.011209
     35 C                    -0.013706
     36 C                     0.015742
     37 C                     0.032587
     38 C                     0.012750
     39 C                    -0.085631
     40 C                    -0.015719
     41 C                     0.004720
     42 C                     0.006447
     43 C                    -0.017086
     44 C                    -0.016414
     45 C                    -0.068745
     46 C                     0.020744
     47 C                    -0.003458
     48 C                     0.025397
     49 C                     0.033132
     50 C                    -0.026497
     51 C                     0.022046
     52 C                     0.025049
     53 C                     0.024796
     54 C                    -0.045400
     55 C                     0.007293
     56 C                     0.008552
     57 C                    -0.001004
     58 C                    -0.014419
     59 C                     0.003541
     60 C                     0.010968
     61 C                     0.007214
     62 C                    -0.020226
     63 C                     0.003443
     64 C                    -0.005465
     65 C                    -0.012630
     66 C                    -0.032598
     67 C                     0.019582
     68 C                    -0.014090
     69 C                    -0.000256
     70 C                     0.022458
     71 C                    -0.003948
     72 C                    -0.013074
     73 C                     0.037109
     74 C                    -0.018082
     75 C                     0.032837
     76 C                     0.009119
     77 C                     0.033457
     78 C                    -0.013230
     79 C                    -0.001177
     80 C                     0.011210
     81 C                     0.000655
     82 C                    -0.004497
     83 C                     0.013073
     84 C                    -0.020354
     85 C                    -0.029802
     86 C                     0.003027
     87 C                     0.012212
     88 C                    -0.023271
     89 O                    -0.478240
     90 C                    -0.098662
     91 H                     0.128257
     92 H                     0.132724
     93 H                     0.138662
     94 O                    -0.445835
     95 C                     0.582068
     96 C                    -0.242897
     97 H                     0.130059
     98 H                     0.116438
     99 C                    -0.185069
    100 H                     0.116862
    101 H                     0.120208
    102 C                    -0.181585
    103 H                     0.118739
    104 H                     0.110143
    105 C                     0.017830
    106 C                     0.067118
    107 C                    -0.108670
    108 H                     0.092464
    109 C                    -0.094044
    110 H                     0.079943
    111 C                    -0.066599
    112 H                     0.092599
    113 C                    -0.104665
    114 H                     0.089616
    115 C                    -0.099625
    116 H                     0.092076
    117 C                    -0.022389
    118 C                     0.040047
    119 C                     0.012148
    120 C                    -0.019581
    121 C                    -0.008748
    122 C                     0.023309
    123 C                     0.003095
    124 C                    -0.016643
    125 C                     0.009995
    126 C                    -0.026163
    127 C                    -0.084861
    128 C                    -0.008534
    129 C                    -0.012255
    130 C                    -0.018205
    131 C                    -0.016521
    132 C                     0.003493
    133 C                    -0.104403
    134 C                     0.022962
    135 C                     0.050900
    136 C                    -0.038747
    137 C                     0.006958
    138 C                     0.039459
    139 C                     0.005970
    140 C                     0.017092
    141 C                     0.021633
    142 C                     0.002537
    143 C                    -0.008635
    144 C                    -0.024989
    145 C                    -0.002907
    146 C                     0.027293
    147 C                     0.019248
    148 C                     0.020411
    149 C                    -0.024108
    150 C                     0.014725
    151 C                     0.016329
    152 C                     0.016361
    153 C                    -0.004640
    154 C                     0.032858
    155 C                    -0.019507
    156 C                     0.026840
    157 C                     0.011101
    158 C                     0.026965
    159 C                    -0.038997
    160 C                     0.021074
    161 C                    -0.025232
    162 C                    -0.030420
    163 C                    -0.034544
    164 C                     0.014310
    165 C                    -0.027282
    166 C                    -0.027766
    167 C                     0.006089
    168 C                     0.042035
    169 C                    -0.028695
    170 C                    -0.000956
    171 C                     0.002991
    172 C                    -0.010532
    173 C                     0.022666
    174 C                     0.002718
    175 C                     0.005740
    176 C                    -0.016506
  ----------------------------------------
  Sum of atomic charges =     0.000000

 -----------------------------------------------------------------
                    Cartesian Multipole Moments
 -----------------------------------------------------------------
    Charge (ESU x 10^10)
                 0.0000
    Dipole Moment (Debye)
         X       0.8407      Y      -0.8175      Z       4.3657
       Tot       4.5205
    Quadrupole Moments (Debye-Ang)
        XX    -815.2746     XY      19.0730     YY    -794.8635
        XZ      11.8124     YZ       8.2924     ZZ    -783.2512
    Octopole Moments (Debye-Ang^2)
       XXX     154.1857    XXY      73.6550    XYY      36.0202
       YYY      -8.3884    XXZ      88.0275    XYZ      38.5739
       YYZ      92.1858    XZZ     118.1393    YZZ     -56.7731
       ZZZ     281.6046
    Hexadecapole Moments (Debye-Ang^3)
      XXXX -122214.4073   XXXY     550.5849   XXYY  -25492.8669
      XYYY    1328.4593   YYYY  -34150.2284   XXXZ     657.4687
      XXYZ      30.1505   XYYZ     296.8907   YYYZ     726.0356
      XXZZ  -24852.9670   XYZZ     -29.2858   YYZZ  -10461.9052
      XZZZ     866.0045   YZZZ    -405.8857   ZZZZ  -28657.0808
 -----------------------------------------------------------------
Archival summary:
1\1\mn251\SP\ProcedureUnspecified\6-31G**\428\afmv_a\FriOct1218:14:562018FriOct1218:14:562018\0\\#,ProcedureUnspecified,6-31G**,\\0,1\O\C,1,1.21669\O,2,1.33398,1,125.611\C,3,1.46651,2,123.617,1,-27.2215,0\H,4,1.09665,3,113.213,2,-55.327,0\H,4,1.09736,3,105.53,2,-175.648,0\H,4,1.09762,3,110.075,2,70.6925,0\C,2,1.49076,1,120.971,3,168.195,0\H,8,1.09709,2,111.451,1,-85.8515,0\H,8,1.09759,2,103.067,1,171.77,0\C,8,1.54898,2,118.666,1,41.555,0\H,11,1.09678,8,105.626,2,-70.0399,0\H,11,1.09729,8,110.549,2,51.7534,0\C,11,1.56777,8,111.462,2,176.793,0\H,14,1.09658,11,105.737,8,-77.1554,0\H,14,1.09681,11,110.859,8,39.1164,0\C,14,1.59794,11,112.376,8,167.922,0\C,17,1.51433,14,112.822,11,-61.5734,0\C,18,1.39805,17,120.709,14,88.0645,0\H,19,1.08575,18,120.314,17,-0.568049,0\C,19,1.39455,18,122.122,17,174.749,0\H,21,1.0863,19,118.838,18,-177.253,0\C,18,1.39827,17,119.306,14,-103.387,0\H,23,1.08621,18,121.899,17,15.271,0\C,23,1.40671,18,118.842,17,-168.282,0\H,25,1.08644,23,122.881,18,-170.77,0\C,25,1.40828,23,122.427,18,-5.88143,0\H,27,1.08591,25,117.435,23,-178.602,0\C,17,1.52951,14,113.297,11,81.35,0\C,29,1.49247,17,131.385,14,11.4098,0\C,30,1.41083,29,122.843,17,66.4036,0\C,31,1.36189,30,120.543,29,146.442,0\C,31,1.37121,30,120.488,29,3.99188,0\C,33,1.38796,31,107.589,30,145.605,0\C,32,1.39457,31,121.163,30,4.40235,0\C,35,1.36363,32,118.987,31,-145.143,0\C,35,1.36575,32,120.224,31,-7.24063,0\C,37,1.35444,35,118.07,32,2.77271,0\C,37,1.35731,35,107.47,32,-143.131,0\C,38,1.39306,37,119.627,35,-137.177,0\C,40,1.38446,38,110.347,37,148.744,0\C,41,1.38393,40,115.287,38,-138.073,0\C,32,1.39708,31,109.05,30,-148.331,0\C,43,1.38825,32,118.257,31,150.459,0\C,36,1.39876,35,110.051,32,140.941,0\C,34,1.40103,33,126.457,31,-141.95,0\C,46,1.39729,34,117.16,33,8.90972,0\C,40,1.40404,38,121.658,37,-2.39744,0\C,48,1.40023,40,120.759,38,138.717,0\C,49,1.39622,48,120,40,-0.279661,0\C,50,1.37051,49,122.272,48,-137.292,0\C,51,1.398,50,108.626,49,143.829,0\C,52,1.3946,51,120.03,50,-145.628,0\C,53,1.38649,52,121.51,51,3.18763,0\C,53,1.40006,52,115.142,51,135.861,0\C,44,1.40592,43,117.502,32,-136.116,0\C,54,1.4073,53,117.509,52,0.462038,0\C,57,1.3788,54,118.81,53,136.655,0\C,58,1.37062,57,106.235,54,-143.916,0\C,59,1.36976,58,109.881,57,-0.795771,0\C,60,1.37936,59,119.641,58,148.151,0\C,61,1.37999,60,121.755,59,-1.34727,0\C,59,1.38226,58,120.394,57,146.658,0\C,63,1.36976,59,119.635,58,-4.16697,0\C,64,1.3539,63,107.399,59,-145.928,0\C,65,1.35026,64,110.415,63,3.30231,0\C,64,1.36692,63,120.246,59,0.788297,0\C,67,1.3553,64,121.198,63,4.45511,0\C,66,1.39702,65,108.767,64,-3.78672,0\C,60,1.40534,59,108.614,58,-3.60368,0\C,67,1.40704,64,120.292,63,-141.378,0\C,71,1.36999,67,119.5,64,3.26867,0\C,72,1.39756,71,119.338,67,-3.33725,0\C,48,1.41026,40,116.429,38,2.71646,0\C,55,1.41232,53,120.557,52,7.65525,0\C,75,1.38489,55,124.425,53,-3.06904,0\C,76,1.39484,75,114.308,55,-6.22508,0\C,75,1.41234,55,119.245,53,-146.378,0\C,54,1.41554,53,108.946,52,138.979,0\C,79,1.34016,54,121.977,53,-136.208,0\C,80,1.37572,79,124.08,54,137.131,0\C,73,1.41944,72,107.029,71,142.99,0\C,79,1.42288,54,108.268,53,3.22078,0\C,83,1.37543,79,121.267,54,-137.35,0\C,84,1.39981,83,121.469,79,-9.55575,0\C,85,1.42375,84,110.806,83,149.638,0\C,33,1.42902,31,122.531,30,7.64359,0\C,29,1.50394,17,61.6804,14,114.293,0\H,6,2.27076,4,100.555,3,80.1587,0\C,89,1.08622,6,124.409,4,-19.8374,0\C,90,1.375,89,122.47,6,103.221,0\H,91,1.08696,90,115.823,89,10.7553,0\C,90,1.37521,89,115.367,6,-75.7515,0\H,93,1.08585,90,125.582,89,-6.70582,0\C,93,1.42467,90,118.321,89,179.043,0\H,95,1.08621,93,121.758,90,178.657,0\C,95,1.37202,93,119.517,90,-8.00485,0\H,97,1.08581,95,115.348,93,-174.168,0\C,97,1.39096,95,122.286,93,8.38104,0\C,99,1.52241,97,124.723,95,174.813,0\C,100,1.49737,99,115.482,97,57.5571,0\C,101,1.48176,100,124.23,99,0.49289,0\C,102,1.37971,101,111.56,100,-146.078,0\C,103,1.37047,102,105.282,101,-9.89863,0\C,103,1.41965,102,117.492,101,-147.7,0\C,105,1.35275,103,121.033,102,135.216,0\C,106,1.40095,105,112.985,103,-148.127,0\C,107,1.36894,106,108.916,105,-1.00377,0\C,108,1.39307,107,117.009,106,136.437,0\C,109,1.38033,108,120.292,107,8.22141,0\C,110,1.38066,109,121.945,108,-5.31869,0\C,111,1.37017,110,119.12,109,2.24842,0\C,112,1.36131,111,109.453,110,-140.801,0\C,113,1.35148,112,107.291,111,-4.87696,0\C,114,1.371,113,120.995,112,149.014,0\C,115,1.36406,114,119.502,113,-134.544,0\C,111,1.37331,110,123.006,109,-137.971,0\C,115,1.38511,114,120.187,113,1.201,0\C,118,1.37907,115,119.09,114,0.952685,0\C,116,1.39256,115,109.923,114,142.942,0\C,120,1.37792,116,108.671,115,-2.71306,0\C,120,1.38678,116,116.681,115,-140.291,0\C,122,1.36086,120,121.968,116,-6.9576,0\C,122,1.36535,120,120.895,116,136.241,0\C,123,1.38294,122,110.515,120,143.557,0\C,110,1.39279,109,105.915,108,-147.6,0\C,126,1.3438,110,108.199,109,3.24803,0\C,113,1.39283,112,124.439,111,146.244,0\C,128,1.39263,113,118.793,112,-6.12967,0\C,117,1.39342,111,116.855,110,2.97945,0\C,130,1.38581,117,121.957,111,-3.5623,0\C,130,1.38753,117,117.474,111,144.096,0\C,132,1.38633,130,104.443,117,-148.442,0\C,131,1.39504,130,106.699,117,149.751,0\C,124,1.39538,122,108.501,120,-143.291,0\C,127,1.39607,126,111.992,110,-3.88561,0\C,125,1.39657,123,128.655,122,-144.924,0\C,137,1.40233,125,119.296,123,134.451,0\C,129,1.40833,128,104.586,113,-140.097,0\C,139,1.39496,129,112.563,128,0.146236,0\C,140,1.40889,139,123.334,129,145.91,0\C,141,1.37658,140,116.269,139,-6.33261,0\C,141,1.40341,140,117.263,139,-133.717,0\C,142,1.40928,141,110.782,140,-134.336,0\C,144,1.38099,142,106.378,141,0.744572,0\C,144,1.39228,142,124.326,141,150.163,0\C,146,1.37794,144,116.865,142,-136.996,0\C,147,1.39856,146,108.417,144,139.174,0\C,148,1.40011,147,110.736,146,-0.664161,0\C,149,1.39786,148,116.451,147,-133.327,0\C,150,1.38579,149,123.813,148,137.31,0\C,150,1.38699,149,125.384,148,-13.9173,0\C,152,1.36273,150,113.875,149,155.283,0\C,153,1.40614,152,104.596,150,-1.60499,0\C,108,1.42019,107,103.286,106,2.96039,0\C,134,1.42292,131,116.852,130,-140.57,0\C,156,1.42074,134,118.888,131,-1.87669,0\C,157,1.39522,156,107.566,134,139.021,0\C,104,1.42609,103,115.282,102,4.3233,0\C,149,1.49164,148,109.294,147,6.68138,0\C,100,1.50401,99,113.202,97,-90.6514,0\H,161,1.09661,100,110.808,99,-47.6218,0\H,161,1.09678,100,102.829,99,-158.539,0\C,161,1.50932,100,115.711,99,83.6801,0\H,164,1.09711,161,107.129,100,31.2134,0\H,164,1.09791,161,108.685,100,-85.0121,0\C,164,1.55951,161,108.468,100,153.908,0\H,167,1.09669,164,107.143,161,67.9691,0\H,167,1.09786,164,113.312,161,-176.331,0\C,167,1.53994,164,119.471,161,-52.4174,0\O,170,1.20742,167,121.068,164,-85.7694,0\O,170,1.38685,167,112.091,164,90.4454,0\C,172,1.50322,170,120.232,167,-179.636,0\H,173,1.09624,172,111.436,170,-63.7608,0\H,173,1.09726,172,109.682,170,-176.902,0\H,173,1.09756,172,116.076,170,60.9332,0\\\@

 Total job time:  926.27s(wall), 8900.49s(cpu) 
 Fri Oct 12 18:14:56 2018

        *************************************************************
        *                                                           *
        *  Thank you very much for using Q-Chem.  Have a nice day.  *
        *                                                           *
        *************************************************************


