
Running Job 1 of 1 ./9/9.qcin
qchem ./9/9.qcin_32726.0 /tmpu/cab_g/afmv_a/scratch_qchem/qchem32726/ 1
/tmpu/appuserlic/qchem4.4/serial-multicore/exe/qcprog.exe_s ./9/9.qcin_32726.0 /tmpu/cab_g/afmv_a/scratch_qchem/qchem32726/
Check license passed

                  Welcome to Q-Chem
     A Quantum Leap Into The Future Of Chemistry


 Q-Chem 4.4, Q-Chem, Inc., Pleasanton, CA (2016)

 Y. Shao,  Z. Gan,  E. Epifanovsky,  A. T. B. Gilbert,  M. Wormit,  
 J. Kussmann,  A. W. Lange,  A. Behn,  J. Deng,  X. Feng,  D. Ghosh,  
 M. Goldey,  P. R. Horn,  L. D. Jacobson,  I. Kaliman,  F. Rob,  
 R. Z. Khaliullin,  T. Kus,  A. Landau,  J. Liu,  E. I. Proynov,  Y. M. Rhee,  
 R. M. Richard,  M. A. Rohrdanz,  R. P. Steele,  E. J. Sundstrom,  
 H. L. Woodcock III,  P. M. Zimmerman,  D. Zuev,  B. Albrecht,  E. Alguire,  
 B. Austin,  S. A. Baeppler,  G. J. O. Beran,  Y. A. Bernard,  E. Berquist,  
 K. Brandhorst,  K. B. Bravaya,  S. T. Brown,  D. Casanova,  C.-M. Chang,  
 Y. Chen,  S. H. Chien,  K. D. Closser,  M. P. Coons,  D. L. Crittenden,  
 S. Dasgupta,  M. Diedenhofen,  R. A. DiStasio Jr.,  H. Do,  A. D. Dutoi,  
 R. G. Edgar,  P.-T. Fang,  S. Fatehi,  Q. Feng,  L. Fusti-Molnar,  
 A. Ghysels,  A. Golubeva-Zadorozhnaya,  J. Gomes,  A. Gunina,  
 M. W. D. Hanson-Heine,  P. H. P. Harbach,  A. W. Hauser,  J. E. Herr,  
 E. G. Hohenstein,  Z. C. Holden,  K. Hui,  T.-C. Jagau,  H. Ji,  B. Kaduk,  
 K. Khistyaev,  Jaehoon Kim,  Jihan Kim,  R. A. King,  P. Klunzinger,  
 K. Koh,  D. Kosenkov,  T. Kowalczyk,  C. M. Krauter,  A. Kunitsa,  
 K. U. Lao,  A. Laurent,  K. V. Lawler,  J. Lee,  D. Lefrancois,  S. Lehtola,  
 S. V. Levchenko,  C. Y. Lin,  Y.-S. Lin,  F. Liu,  E. Livshits,  
 R. C. Lochan,  A. Luenser,  P. Manohar,  S. F. Manzer,  S.-P. Mao,  Y. Mao,  
 N. Mardirossian,  A. V. Marenich,  L. A. Martinez-Martinez,  S. A. Maurer,  
 N. J. Mayhall,  J.-M. Mewes,  A. F. Morrison,  K. Nanda,  T. S. Nguyen-Beck,  
 C. M. Oana,  R. Olivares-Amaya,  D. P. O'Neill,  J. A. Parkhill,  
 T. M. Perrine,  R. Peverati,  P. A. Pieniazek,  F. Plasser,  A. Prociuk,  
 D. R. Rehn,  E. Rosta,  N. J. Russ,  N. Sergueev,  S. M. Sharada,  
 S. Sharma,  D. W. Small,  A. Sodt,  T. Stauch,  T. Stein,  D. Stuck,  
 Y.-C. Su,  A. J. W. Thom,  T. Tsuchimochi,  L. Vogt,  O. Vydrov,  T. Wang,  
 M. A. Watson,  J. Wenzel,  A. White,  C. F. Williams,  V. Vanovschi,  
 K. Yao,  S. Yeganeh,  S. R. Yost,  Z.-Q. You,  I. Y. Zhang,  X. Zhang,  
 Y. Zhao,  B. R. Brooks,  G. K. L. Chan,  D. M. Chipman,  C. J. Cramer,  
 W. A. Goddard III,  M. S. Gordon,  W. J. Hehre,  A. Klamt,  
 H. F. Schaefer III,  M. W. Schmidt,  C. D. Sherrill,  D. G. Truhlar,  
 A. Warshel,  X. Xu,  A. Aspuru-Guzik,  R. Baer,  A. T. Bell,  N. A. Besley,  
 J.-D. Chai,  A. Dreuw,  B. D. Dunietz,  T. R. Furlani,  S. R. Gwaltney,  
 C.-P. Hsu,  Y. Jung,  J. Kong,  D. S. Lambrecht,  W. Liang,  C. Ochsenfeld,  
 V. A. Rassolov,  L. V. Slipchenko,  J. E. Subotnik,  T. Van Voorhis,  
 J. M. Herbert,  A. I. Krylov,  P. M. W. Gill,  M. Head-Gordon

 Contributors to earlier versions of Q-Chem not listed above: 
 R. D. Adamson,  J. Baker,  E. F. C. Byrd,  A. K. Chakraborty,  C.-L. Cheng,  
 H. Dachsel,  R. J. Doerksen,  G. Hawkins,  A. Heyden,  S. Hirata,  
 G. Kedziora,  F. J. Keil,  C. Kelley,  P. P. Korambath,  W. Kurlancheek,  
 A. M. Lee,  M. S. Lee,  D. Liotard,  I. Lotan,  P. E. Maslen,  N. Nair,  
 D. Neuhauser,  R. Olson,  B. Peters,  J. Ritchie,  N. E. Schultz,  
 N. Shenvi,  A. C. Simmonett,  K. S. Thanthiriwatte,  Q. Wu,  W. Zhang

 Please cite Q-Chem as follows:
 Y. Shao et al., Mol. Phys. 113, 184-215 (2015)
 DOI: 10.1080/00268976.2014.952696

 Q-Chem 4.4.2 for Intel X86 Linux

 Parts of Q-Chem use Armadillo 5.200.1 (Boston Tea Smuggler).
 http://arma.sourceforge.net/

 Q-Chem begins on Fri Oct 12 18:14:59 2018  

Host: 
0

     Scratch files written to /tmpu/cab_g/afmv_a/scratch_qchem/qchem32726//
 Dec716 11556_ 22328  22283 4050   
Processing $rem in /tmpu/appuserlic/qchem4.4/serial-multicore/config/preferences.
 MEM_TOTAL  2000 
FILE_GEOM_ORG=        593

Checking the input file for inconsistencies... 	...done.

--------------------------------------------------------------
User input:
--------------------------------------------------------------
$comment
SP
$end

$rem
MEM_STATIC 5000
MEM_TOTAL 20000
JOBTYPE SP
EXCHANGE B3LYP
BASIS 6-31g(d,p)
$end

$molecule
0 1
O         -10.041000    -16.980000     13.764000
C          -9.293000    -16.152000     12.827000
H          -9.036000    -16.800000     11.980000
H          -8.307000    -15.828000     13.182000
H          -9.931000    -15.447000     12.279000
O         -11.770000    -17.207000     12.222000
C         -11.244000    -17.452000     13.286000
C         -11.985000    -18.373000     14.217000
H         -12.565000    -17.804000     14.954000
H         -11.323000    -18.974000     14.852000
C         -13.063000    -19.222000     13.468000
H         -13.753000    -18.589000     12.897000
H         -12.586000    -19.875000     12.727000
C         -13.896000    -20.039000     14.407000
H         -13.272000    -20.797000     14.895000
H         -14.198000    -19.332000     15.190000
C         -15.133000    -20.653000     13.740000
C         -16.157000    -19.585000     13.273000
C         -15.932000    -18.883000     12.027000
H         -15.055000    -19.036000     11.405000
C         -16.789000    -17.879000     11.622000
H         -16.415000    -17.458000     10.694000
C         -17.834000    -17.369000     12.514000
H         -18.391000    -16.460000     12.305000
C         -18.088000    -18.116000     13.668000
H         -18.781000    -17.637000     14.354000
C         -17.269000    -19.157000     14.090000
H         -17.379000    -19.662000     15.045000
C         -18.960000    -24.470000     13.856000
C         -18.643000    -24.102000     11.440000
C         -16.569000    -28.097000     10.638000
C         -14.581000    -25.597000     16.150000
C         -13.352000    -26.664000     10.835000
C         -18.642000    -23.567000     12.743000
C         -12.826000    -27.004000     14.342000
C         -18.463000    -27.601000     12.054000
C         -14.941000    -22.991000     10.845000
C         -13.598000    -24.921000     15.469000
C         -14.946000    -21.885000     12.921000
C         -13.745000    -23.231000     11.449000
C         -12.411000    -24.731000     13.516000
C         -12.751000    -27.509000     13.044000
C         -17.037000    -22.480000     11.683000
C         -14.563000    -28.528000     11.720000
C         -15.609000    -21.995000     14.217000
C         -15.034000    -22.961000     15.252000
C         -14.359000    -27.669000     10.692000
C         -16.678000    -28.062000     15.062000
C         -16.597000    -28.872000     12.953000
C         -17.866000    -28.290000     13.122000
C         -19.070000    -26.382000     12.330000
C         -16.044000    -23.724000     15.850000
C         -15.701000    -22.230000     11.670000
C         -18.822000    -25.522000     11.207000
C         -12.750000    -25.614000     14.598000
C         -17.653000    -23.417000     10.785000
C         -13.036000    -24.477000     11.196000
C         -16.834000    -25.964000     16.159000
C         -17.823000    -27.528000     10.826000
C         -13.663000    -22.697000     12.739000
C         -18.613000    -26.543000     14.654000
C         -12.410000    -25.199000     12.231000
C         -15.471000    -23.911000      9.964000
C         -14.415000    -28.600000     14.129000
C         -13.894000    -27.706000     15.053000
C         -14.814000    -25.124000      9.716000
C         -15.852000    -24.965000     16.361000
C         -13.807000    -23.649000     14.955000
C         -16.139000    -27.163000     15.943000
C         -17.005000    -22.513000     14.150000
C         -17.007000    -25.557000      9.662000
C         -13.086000    -23.507000     13.754000
C         -13.601000    -25.402000     10.307000
C         -18.093000    -25.672000     15.577000
C         -15.559000    -27.364000      9.962000
C         -19.212000    -25.817000     13.625000
C         -15.976000    -28.742000     11.728000
C         -16.822000    -24.164000      9.859000
C         -15.728000    -26.117000      9.447000
C         -17.683000    -22.632000     12.907000
C         -17.272000    -23.403000     15.181000
C         -15.821000    -28.769000     14.158000
C         -18.019000    -26.236000     10.318000
C         -12.517000    -26.602000     11.960000
C         -14.751000    -27.001000     15.998000
C         -13.795000    -28.453000     12.896000
C         -18.325000    -24.382000     15.087000
C         -17.896000    -27.765000     14.417000
O          -8.441000    -28.487000      2.646000
C          -7.691000    -28.938000      1.509000
H          -7.931000    -29.991000      1.317000
H          -6.621000    -28.708000      1.588000
H          -8.046000    -28.449000      0.594000
O          -7.533000    -29.970000      4.164000
C          -8.299000    -29.015000      3.924000
C          -9.296000    -28.388000      4.935000
H          -9.042000    -27.320000      4.930000
H          -9.017000    -28.737000      5.936000
C         -10.829000    -28.470000      4.580000
H         -11.036000    -28.178000      3.543000
H         -11.204000    -29.500000      4.570000
C         -11.503000    -27.401000      5.433000
H         -11.153000    -27.481000      6.469000
H         -11.148000    -26.391000      5.194000
C         -13.044000    -27.442000      5.392000
C         -13.612000    -28.564000      6.169000
C         -14.065000    -29.703000      5.489000
H         -14.130000    -29.842000      4.414000
C         -14.353000    -30.888000      6.166000
H         -14.622000    -31.769000      5.591000
C         -14.388000    -30.943000      7.585000
H         -14.622000    -31.846000      8.140000
C         -13.906000    -29.838000      8.287000
H         -13.896000    -29.852000      9.373000
C         -13.482000    -28.664000      7.584000
H         -12.922000    -27.883000      8.090000
C         -17.417000    -26.914000      2.199000
C         -18.205000    -26.141000      4.375000
C         -18.469000    -21.767000      3.250000
C         -13.211000    -24.309000      0.835000
C         -15.511000    -20.953000      4.742000
C         -17.438000    -27.050000      3.585000
C         -13.483000    -21.769000      1.898000
C         -19.133000    -23.747000      1.969000
C         -15.215000    -24.585000      6.553000
C         -12.533000    -23.968000      2.031000
C         -13.748000    -26.100000      5.483000
C         -14.078000    -23.878000      6.113000
C         -12.615000    -22.810000      3.958000
C         -14.279000    -20.909000      2.627000
C         -16.280000    -26.457000      5.506000
C         -16.682000    -20.621000      2.625000
C         -13.738000    -26.856000      4.145000
C         -13.123000    -26.203000      2.956000
C         -16.723000    -20.680000      4.054000
C         -16.398000    -23.381000     -0.269000
C         -17.700000    -21.967000      0.984000
C         -18.344000    -23.214000      0.917000
C         -19.036000    -25.117000      2.278000
C         -13.911000    -26.442000      1.803000
C         -15.130000    -25.869000      6.069000
C         -18.983000    -25.178000      3.677000
C         -12.616000    -22.663000      2.551000
C         -17.547000    -25.841000      5.557000
C         -14.218000    -22.473000      5.777000
C         -15.061000    -25.344000      0.010000
C         -19.148000    -23.008000      3.141000
C         -13.222000    -24.702000      5.471000
C         -17.464000    -25.420000      0.381000
C         -13.467000    -21.927000      4.708000
C         -16.496000    -23.878000      6.542000
C         -15.353000    -21.416000      0.749000
C         -14.101000    -22.105000      0.675000
C         -16.602000    -22.532000      6.223000
C         -13.861000    -25.557000      0.717000
C         -12.569000    -24.907000      3.082000
C         -15.166000    -24.011000     -0.364000
C         -15.015000    -27.397000      3.608000
C         -18.447000    -23.568000      5.429000
C         -12.541000    -24.173000      4.311000
C         -15.475000    -21.841000      5.807000
C         -16.218000    -26.142000      0.375000
C         -17.828000    -21.403000      4.426000
C         -18.176000    -25.955000      1.513000
C         -17.808000    -21.291000      2.171000
C         -17.643000    -24.513000      6.075000
C         -17.795000    -22.327000      5.526000
C         -16.248000    -27.163000      4.325000
C         -15.012000    -27.221000      2.164000
C         -16.540000    -22.058000      0.247000
C         -19.090000    -23.891000      4.197000
C         -14.280000    -20.972000      4.050000
C         -14.018000    -23.371000      0.133000
C         -15.483000    -20.666000      1.929000
C         -16.217000    -27.016000      1.513000
C         -17.525000    -24.077000      0.126000
$end

--------------------------------------------------------------
 ----------------------------------------------------------------
             Standard Nuclear Orientation (Angstroms)
    I     Atom           X                Y                Z
 ----------------------------------------------------------------
    1      O       6.0842513730    -5.6959616020     6.5476262896
    2      C       5.2170934549    -6.4833517866     7.4142928012
    3      H       4.2865625849    -5.9122309533     7.5205721200
    4      H       5.5584496798    -6.5708825376     8.4530474861
    5      H       4.7904842314    -7.3584544478     6.9077625427
    6      O       4.6149757866    -5.9920384501     4.7665306293
    7      C       5.6140684927    -5.5201588076     5.2644667374
    8      C       6.4637560503    -4.6416206141     4.3868080924
    9      H       7.2919622694    -5.2097073330     3.9455803299
   10      H       6.9879099788    -3.8523110368     4.9390064720
   11      C       5.6733201199    -4.1098336985     3.1473325113
   12      H       5.2178715660    -4.9273613395     2.5754538782
   13      H       4.8362338344    -3.4795200577     3.4713853848
   14      C       6.5480525479    -3.3486753675     2.1993978224
   15      H       6.9095102221    -2.4321754195     2.6805009248
   16      H       7.4244750825    -3.9937861381     2.0584807030
   17      C       5.8751314806    -3.0649072742     0.8508034036
   18      C       5.5918234694    -4.3549844926     0.0367233452
   19      C       4.4294375768    -5.1560079856     0.3579170564
   20      H       3.7502950080    -4.9234954905     1.1728558952
   21      C       4.1915251492    -6.3448453527    -0.3028048150
   22      H       3.3031976436    -6.8039141058     0.1196062676
   23      C       5.1896874919    -6.9219597475    -1.2074593972
   24      H       5.1196250628    -7.9376034947    -1.5866295895
   25      C       6.2569086160    -6.0941941715    -1.5681313027
   26      H       7.0294165458    -6.6020521998    -2.1387430109
   27      C       6.5091415923    -4.8741894489    -0.9512901541
   28      H       7.4008872082    -4.2808588266    -1.1298917476
   29      C       5.7239716984    -0.0410287340    -3.6282794595
   30      C       3.3568063973    -0.6486448845    -3.3115776264
   31      C       1.9776161250     3.5264225058    -2.0580420347
   32      C       7.6430899055     2.1617550051     0.5157445639
   33      C       2.1834284085     2.7520990109     1.3769909242
   34      C       4.7129226368    -1.0036942882    -3.1740143102
   35      C       5.5933192354     3.6278483786     1.9219978910
   36      C       3.5362908806     2.8722175149    -3.7845578430
   37      C       2.7143192201    -1.1201771928     0.5170014193
   38      C       6.9996909467     1.5986831270     1.5909254045
   39      C       4.9057378827    -1.9341879325     0.7779760565
   40      C       3.2242667931    -0.5874899678     1.6611298182
   41      C       5.0264979001     1.3848990358     2.7398742994
   42      C       4.2419453651     3.9684038919     1.8648611692
   43      C       3.7118632286    -1.9001252326    -1.4203080568
   44      C       2.8978613127     4.4563886713    -0.1426223090
   45      C       6.2108052909    -1.7848608431     0.1409631207
   46      C       7.0920874968    -0.6050845163     0.5489772045
   47      C       1.9715315517     3.5262767170     0.1936602006
   48      C       6.3736440778     4.0358414742    -2.0403628667
   49      C       4.1812390742     4.5713406389    -2.1712939351
   50      C       4.4824559866     3.7903871487    -3.3013496937
   51      C       3.9868451837     1.6070540665    -4.1408558488
   52      C       7.6441002082     0.0271697657    -0.5714733697
   53      C       3.6618797655    -1.8975172408    -0.0619782545
   54      C       2.9642335060     0.6720248302    -3.7637369233
   55      C       6.0102679279     2.3202315896     2.2679807242
   56      C       2.7399154223    -1.2158741046    -2.2271208329
   57      C       2.7881494569     0.7258343235     2.1130003471
   58      C       7.7211249999     2.1025165836    -1.7648650768
   59      C       2.2953563732     2.7633393711    -3.1753451557
   60      C       4.5633041486    -0.9281947318     1.8776459243
   61      C       6.2487696087     2.1448477054    -3.6610414078
   62      C       3.6961750085     1.6773321555     2.6175065150
   63      C       1.7569478932    -0.4343691812    -0.2017255897
   64      C       5.2702757288     4.8609724234     0.0531602889
   65      C       6.2676105234     4.2043071078     0.7592530383
   66      C       1.3323639286     0.8377920357     0.2055289932
   67      C       7.9920550835     1.3370652824    -0.6056368011
   68      C       6.6533389286     0.2550468864     1.6142263134
   69      C       7.3280410460     3.3721643307    -1.3168007918
   70      C       6.1522959159    -1.5476699992    -1.3293926718
   71      C       1.3369939022     0.8459633288    -2.0304418907
   72      C       5.4433924413     0.0974064540     2.3167823551
   73      C       1.8240040837     1.4090015392     1.3587608263
   74      C       7.2424007433     1.5102793489    -2.9603345009
   75      C       1.3446641130     2.9134591344    -0.9453818639
   76      C       5.3458169381     1.1952260221    -4.1381295898
   77      C       2.9510795637     4.4037823717    -1.5697976294
   78      C       1.6903289145    -0.4518734212    -1.5784937304
   79      C       0.9923083955     1.6014747299    -0.8876118839
   80      C       4.9396449379    -1.7158967535    -2.0505524077
   81      C       7.0810419997    -0.5986586666    -1.7333211339
   82      C       5.3493682908     4.7684952689    -1.3580201895
   83      C       1.9567022696     1.4033925451    -3.1353198061
   84      C       3.2643500480     2.9899529677     2.2382271894
   85      C       7.3322971574     3.4788265563     0.0776231234
   86      C       4.0342763263     4.6756453715     0.6566976621
   87      C       6.9231618663     0.1478963122    -2.9555385971
   88      C       5.8309966968     3.4383107346    -3.1963251650
   89      O      -6.4015549973     4.3958911280     5.6310452725
   90      C      -7.6207252803     4.8295718772     6.2508959228
   91      H      -7.9255040260     5.7865654991     5.8098220925
   92      H      -7.5685300613     4.8140426616     7.3468318254
   93      H      -8.4513715221     4.1706625594     5.9711883399
   94      O      -5.1202075374     6.2027280452     6.2803264458
   95      C      -5.2049812023     5.0995412000     5.7039817482
   96      C      -4.0771908922     4.4324973597     4.8718756663
   97      H      -3.9666373003     3.4383824642     5.3242897220
   98      H      -3.1406436866     4.9518581117     5.1059413429
   99      C      -4.3620006106     4.1827592443     3.3423815349
  100      H      -5.3447046629     3.7277058770     3.1671640171
  101      H      -4.4767835479     5.1154901225     2.7780562864
  102      C      -3.3540067059     3.1248437856     2.9071698963
  103      H      -2.3540162078     3.3997377745     3.2630466990
  104      H      -3.4875018767     2.1761598238     3.4414205679
  105      C      -3.3221626053     2.8736858984     1.3860030189
  106      C      -2.6579969250     3.9605376354     0.6357535597
  107      C      -3.4462503394     4.8996247704    -0.0437329431
  108      H      -4.5255301971     4.8860146371    -0.1626478411
  109      C      -2.9028673104     6.0870620484    -0.5338610842
  110      H      -3.5652714340     6.8222835750    -0.9808701264
  111      C      -1.5007915309     6.3149784680    -0.5408334713
  112      H      -1.0472135732     7.2221225030    -0.9275462020
  113      C      -0.6962658706     5.4172024254     0.1612275228
  114      H       0.3783075188     5.5710854234     0.1973392048
  115      C      -1.2735813773     4.2624000823     0.7820329305
  116      H      -0.7062202552     3.6698057711     1.4937423792
  117      C      -6.2048738073     1.1410891653    -2.8901221764
  118      C      -3.9149634032     0.5190180124    -3.4582654874
  119      C      -4.4917870142    -3.9350943080    -2.9147997949
  120      C      -7.4557004189    -0.7906043719     1.6969193392
  121      C      -3.0633290175    -3.9893284239     0.1827783579
  122      C      -4.8459490168     1.4463195264    -2.8996531983
  123      C      -6.0830159932    -3.1804416692     1.9418033113
  124      C      -5.9663329843    -2.2923125501    -3.9774565025
  125      C      -1.7188337309    -0.1648268187    -0.1697565989
  126      C      -6.2629861653    -0.8446710348     2.4590810709
  127      C      -3.0353876542     1.4471088326     0.9529914686
  128      C      -2.1272974686    -0.6988235650     1.0688808985
  129      C      -4.2091854806    -1.7426192408     2.6504152462
  130      C      -5.2169394027    -4.0731534515     1.3437782174
  131      C      -2.9282537729     1.3281517763    -1.5991397095
  132      C      -5.0636060780    -4.7998162024    -0.9596555538
  133      C      -4.4533018148     2.0150688830     0.7832245276
  134      C      -5.5846514619     1.3414031965     1.4793405516
  135      C      -3.6517943873    -4.5678412272    -0.9730107427
  136      C      -8.2787331349    -2.4267181215    -1.2834695527
  137      C      -6.8011568351    -3.8863154284    -2.2586377331
  138      C      -6.9850029064    -2.7993194082    -3.1297716344
  139      C      -5.8293796681    -0.9000912946    -4.1347897953
  140      C      -6.7169546177     1.2811593683     0.6297911154
  141      C      -2.3571994475     1.0403241225    -0.3436457035
  142      C      -4.4522753991    -0.6525518966    -4.0570782855
  143      C      -5.5865051166    -2.0653247442     2.6398901204
  144      C      -2.7400495003     0.4994051084    -2.7239081800
  145      C      -2.2846570152    -2.1365646330     1.1899577102
  146      C      -8.3050439347    -0.2304930644    -0.3375931123
  147      C      -4.7147966112    -2.8657894226    -3.8202592262
  148      C      -2.9058051120     0.1810291078     1.7349598153
  149      C      -7.8256032941    -0.5549640073    -2.7003629444
  150      C      -3.3167117806    -2.6654538772     2.0023720927
  151      C      -1.5804688937    -1.0927365430    -1.2925966211
  152      C      -7.0858917371    -4.0177164307     0.1432146380
  153      C      -7.3049143157    -3.1235562766     1.2387545637
  154      C      -1.7297674593    -2.4645174840    -1.1489303820
  155      C      -7.6899311049     0.2897540531     0.8183468270
  156      C      -5.3319008156     0.1974860866     2.2730525626
  157      C      -8.5104860077    -1.5964305717    -0.1968867484
  158      C      -4.9865520472     2.2368548816    -0.5872623057
  159      C      -2.5487461140    -1.8985539747    -3.1778996449
  160      C      -4.0266103924    -0.3558784373     2.4730165960
  161      C      -2.1158547361    -2.9817216233     0.0774881815
  162      C      -7.9808666283     0.3789015038    -1.6151788567
  163      C      -3.3142812630    -4.0209835613    -2.1851038020
  164      C      -6.7317229075    -0.0215294112    -3.4707305394
  165      C      -5.5376424304    -4.4137502919    -2.2042979318
  166      C      -2.0621359026    -0.7463250802    -2.5515322791
  167      C      -2.3362779140    -2.9743969526    -2.2992568557
  168      C      -4.1856041657     1.8714822403    -1.7336127426
  169      C      -6.3972747027     1.8819206362    -0.5893289160
  170      C      -7.6010920111    -3.6763652220    -1.1572410629
  171      C      -3.7767504829    -1.8601198239    -3.9032478964
  172      C      -3.8135666564    -3.8306249980     1.3687558905
  173      C      -7.9985240390    -1.9437053901     1.0647820446
  174      C      -5.8193247265    -4.6222260924     0.1898630746
  175      C      -6.9575737778     1.3756766627    -1.7502048722
  176      C      -7.9140676551    -1.9073182560    -2.5113998713
 ----------------------------------------------------------------
 Molecular Point Group                 C1    NOp =  1
 Largest Abelian Subgroup              C1    NOp =  1
 Nuclear Repulsion Energy = 34688.1978205416 hartrees
 There are      462 alpha and      462 beta electrons
 Requested basis set is 6-31G(d,p)
 There are 676 shells and 2360 basis functions

 Total QAlloc Memory Limit  20000 MB
 Mega-Array Size      4888 MB
 MEM_STATIC part      5000 MB
 A cutoff of  1.0D-08 yielded  37229 shell pairs
 There are    525619 function pairs
 
 -------------------------------------------------------
 OpenMP Integral Computing Module                       
 Release: version 1.0, May 2013, Q-Chem Inc. Pittsburgh 
 -------------------------------------------------------
 Integral Job Info:
 Integral job number is                      11
 Integral operator is                         1
 short-range coefficients                     0
 long-range coefficients              100000000
 Omega coefficients                           0
 if combine SR and LR in K                    0
 Integral screening is                        0
 Integral computing path is                   2
 max size of driver memory is            800000
 size of driver memory is                593474
 size of scratch memory is              2260544
 max col of scratch BK array               1296
 max len of scratch array in speh3          155
 max len of scratch index in speh4           18
 max int batch size is                      520
 min int batch size is                       52
 fixed nKL is                                52
 max L of basis functions is                  2
 order of int derivative is                   0
 number of shells is                        676
 number of basis is                        2360
 number of cartesian basis is              2360
 number of contracted shell pairs         37229
 number of primitive shell pairs         113007
 maxK2 (contraction) of shell pair           36
 max number of K2 of shell pair               1
 max number of CS2 of shell pair           7180
 max number of PS2 of shell pair          34356
 mem total for path MDJ                 1499672
 -------------------------------------------------------
 Smallest overlap matrix eigenvalue = 2.46E-04

 Scale SEOQF with 1.000000e-02/1.000000e-02/1.000000e-02

 Standard Electronic Orientation quadrupole field applied
 Nucleus-field energy     =     0.0000000890 hartrees
 Guess from superposition of atomic densities
 Warning:  Energy on first SCF cycle will be non-variational
 A restricted hybrid HF-DFT SCF calculation will be
 performed using Pulay DIIS extrapolation
 Exchange:     0.2000 Hartree-Fock + 0.0800 Slater + 0.7200 B88
 Correlation:  0.1900 VWN1RPA + 0.8100 LYP
 Using SG-1 standard quadrature grid
 SCF converges when DIIS error is below 1.0E-05
 using 16 threads for integral computing 
 -------------------------------------------------------
 OpenMP BLAS3 based DFT computing Module                
 Release: version 1.0, May 2013, Q-Chem Inc. Pittsburgh 
 -------------------------------------------------------
 ---------------------------------------
  Cycle       Energy         DIIS Error
 ---------------------------------------
    1   -5858.1310436864      1.83E-02
    2   -5803.1297477558      1.29E-03
    3   -5802.3449110966      1.79E-03
    4   -5803.9854059526      6.36E-04
    5   -5804.1932400320      3.08E-04
    6   -5804.2545305027      1.42E-04
    7   -5804.2690541972      4.32E-05
    8   -5804.2699638622      2.44E-05
    9   -5804.2703485955      8.75E-06 Convergence criterion met
 ---------------------------------------
 SCF time:  CPU 8144.86 s  wall 841.81 s
 SCF   energy in the final basis set = -5804.2703485955
 Total energy in the final basis set = -5804.2703485955
 
 --------------------------------------------------------------
 
                    Orbital Energies (a.u.)
 --------------------------------------------------------------
 
 Alpha MOs
 -- Occupied --
-19.203 -19.186 -19.142 -19.134 -10.323 -10.322 -10.249 -10.245
-10.242 -10.241 -10.240 -10.240 -10.237 -10.237 -10.229 -10.229
-10.227 -10.226 -10.226 -10.225 -10.225 -10.224 -10.224 -10.223
-10.223 -10.222 -10.222 -10.222 -10.221 -10.221 -10.221 -10.221
-10.221 -10.221 -10.221 -10.220 -10.220 -10.220 -10.220 -10.220
-10.219 -10.219 -10.219 -10.219 -10.219 -10.219 -10.219 -10.219
-10.218 -10.218 -10.218 -10.218 -10.218 -10.218 -10.217 -10.217
-10.217 -10.217 -10.217 -10.217 -10.217 -10.216 -10.216 -10.216
-10.216 -10.216 -10.216 -10.216 -10.216 -10.216 -10.216 -10.215
-10.215 -10.215 -10.215 -10.215 -10.215 -10.215 -10.214 -10.214
-10.214 -10.214 -10.214 -10.214 -10.214 -10.214 -10.214 -10.214
-10.213 -10.213 -10.213 -10.213 -10.213 -10.213 -10.212 -10.212
-10.212 -10.212 -10.212 -10.212 -10.212 -10.212 -10.212 -10.212
-10.212 -10.211 -10.211 -10.211 -10.211 -10.211 -10.211 -10.211
-10.211 -10.211 -10.211 -10.211 -10.211 -10.211 -10.210 -10.210
-10.210 -10.210 -10.209 -10.209 -10.209 -10.209 -10.209 -10.209
-10.208 -10.208 -10.208 -10.207 -10.206 -10.206 -10.206 -10.206
-10.206 -10.203 -10.203 -10.202 -10.200 -10.200 -10.200 -10.200
-10.198 -10.197 -10.196 -10.189  -1.096  -1.076  -1.022  -0.993
 -0.985  -0.982  -0.969  -0.965  -0.964  -0.961  -0.961  -0.959
 -0.937  -0.934  -0.928  -0.926  -0.925  -0.924  -0.923  -0.923
 -0.922  -0.920  -0.900  -0.897  -0.891  -0.890  -0.886  -0.886
 -0.877  -0.874  -0.850  -0.850  -0.842  -0.839  -0.838  -0.838
 -0.836  -0.834  -0.825  -0.823  -0.808  -0.806  -0.800  -0.798
 -0.796  -0.796  -0.794  -0.793  -0.791  -0.790  -0.783  -0.781
 -0.775  -0.769  -0.768  -0.766  -0.766  -0.766  -0.763  -0.760
 -0.754  -0.747  -0.742  -0.741  -0.736  -0.734  -0.718  -0.716
 -0.714  -0.714  -0.713  -0.712  -0.711  -0.710  -0.709  -0.709
 -0.708  -0.707  -0.705  -0.705  -0.702  -0.700  -0.675  -0.671
 -0.660  -0.657  -0.656  -0.656  -0.650  -0.649  -0.634  -0.631
 -0.628  -0.627  -0.626  -0.626  -0.624  -0.623  -0.620  -0.619
 -0.615  -0.615  -0.613  -0.611  -0.611  -0.610  -0.608  -0.606
 -0.604  -0.603  -0.601  -0.598  -0.568  -0.568  -0.566  -0.563
 -0.563  -0.562  -0.560  -0.559  -0.558  -0.557  -0.554  -0.551
 -0.537  -0.535  -0.533  -0.532  -0.530  -0.527  -0.526  -0.525
 -0.524  -0.523  -0.522  -0.519  -0.518  -0.516  -0.516  -0.513
 -0.512  -0.507  -0.503  -0.495  -0.494  -0.489  -0.487  -0.487
 -0.485  -0.484  -0.479  -0.479  -0.478  -0.478  -0.476  -0.475
 -0.473  -0.473  -0.472  -0.471  -0.469  -0.467  -0.466  -0.466
 -0.465  -0.464  -0.464  -0.462  -0.461  -0.460  -0.459  -0.458
 -0.457  -0.454  -0.454  -0.451  -0.450  -0.449  -0.446  -0.443
 -0.441  -0.440  -0.440  -0.438  -0.438  -0.437  -0.433  -0.433
 -0.432  -0.431  -0.428  -0.427  -0.427  -0.426  -0.425  -0.424
 -0.423  -0.422  -0.422  -0.421  -0.420  -0.419  -0.419  -0.418
 -0.417  -0.416  -0.416  -0.415  -0.414  -0.413  -0.413  -0.412
 -0.412  -0.411  -0.410  -0.408  -0.402  -0.401  -0.399  -0.397
 -0.394  -0.392  -0.391  -0.390  -0.390  -0.389  -0.386  -0.385
 -0.384  -0.378  -0.375  -0.372  -0.371  -0.370  -0.367  -0.366
 -0.365  -0.364  -0.363  -0.362  -0.361  -0.360  -0.359  -0.358
 -0.358  -0.356  -0.356  -0.355  -0.354  -0.353  -0.352  -0.351
 -0.350  -0.349  -0.348  -0.346  -0.345  -0.345  -0.344  -0.343
 -0.341  -0.341  -0.340  -0.338  -0.338  -0.336  -0.335  -0.333
 -0.333  -0.331  -0.330  -0.330  -0.328  -0.327  -0.326  -0.325
 -0.312  -0.312  -0.303  -0.293  -0.290  -0.287  -0.277  -0.274
 -0.271  -0.270  -0.268  -0.268  -0.266  -0.264  -0.263  -0.262
 -0.262  -0.261  -0.260  -0.259  -0.258  -0.257  -0.256  -0.253
 -0.248  -0.246  -0.245  -0.242  -0.224  -0.222  -0.213  -0.211
 -0.210  -0.208  -0.207  -0.207  -0.199  -0.198
 -- Virtual --
 -0.126  -0.122  -0.119  -0.119  -0.111  -0.106  -0.080  -0.077
 -0.076  -0.073  -0.063  -0.055  -0.051  -0.050  -0.026  -0.023
 -0.022  -0.022  -0.021  -0.020  -0.017  -0.017  -0.014  -0.013
 -0.012  -0.011  -0.010  -0.008  -0.006  -0.004  -0.001   0.002
  0.005   0.007   0.033   0.037   0.039   0.043   0.044   0.046
  0.048   0.052   0.053   0.057   0.060   0.061   0.068   0.068
  0.069   0.070   0.081   0.082   0.084   0.086   0.090   0.091
  0.093   0.096   0.097   0.097   0.098   0.099   0.101   0.108
  0.109   0.110   0.112   0.113   0.114   0.115   0.115   0.117
  0.121   0.121   0.124   0.125   0.128   0.130   0.131   0.133
  0.137   0.141   0.143   0.147   0.152   0.153   0.153   0.154
  0.156   0.158   0.159   0.161   0.162   0.163   0.168   0.170
  0.171   0.171   0.174   0.175   0.178   0.179   0.181   0.182
  0.184   0.185   0.185   0.187   0.188   0.189   0.190   0.191
  0.192   0.196   0.197   0.199   0.200   0.202   0.203   0.206
  0.208   0.211   0.212   0.214   0.215   0.216   0.218   0.219
  0.221   0.222   0.222   0.223   0.225   0.225   0.227   0.227
  0.228   0.229   0.231   0.232   0.234   0.235   0.236   0.237
  0.239   0.241   0.241   0.244   0.247   0.250   0.254   0.257
  0.260   0.261   0.265   0.266   0.271   0.273   0.274   0.277
  0.281   0.284   0.284   0.288   0.290   0.291   0.304   0.305
  0.306   0.307   0.309   0.311   0.313   0.314   0.317   0.317
  0.319   0.321   0.322   0.323   0.326   0.326   0.328   0.331
  0.335   0.336   0.338   0.339   0.343   0.344   0.347   0.348
  0.349   0.351   0.352   0.366   0.368   0.374   0.379   0.390
  0.394   0.394   0.399   0.399   0.402   0.405   0.405   0.407
  0.408   0.409   0.410   0.413   0.414   0.418   0.420   0.423
  0.430   0.432   0.433   0.435   0.436   0.437   0.440   0.442
  0.445   0.449   0.451   0.454   0.456   0.458   0.460   0.465
  0.466   0.470   0.471   0.472   0.472   0.473   0.474   0.475
  0.476   0.477   0.480   0.481   0.482   0.483   0.484   0.486
  0.486   0.487   0.488   0.488   0.490   0.491   0.493   0.495
  0.496   0.497   0.499   0.500   0.500   0.502   0.503   0.504
  0.505   0.507   0.508   0.508   0.509   0.511   0.512   0.512
  0.513   0.514   0.516   0.516   0.516   0.517   0.518   0.518
  0.519   0.521   0.522   0.522   0.523   0.523   0.524   0.525
  0.526   0.527   0.528   0.528   0.529   0.529   0.530   0.531
  0.532   0.533   0.533   0.534   0.535   0.536   0.537   0.538
  0.538   0.539   0.540   0.540   0.541   0.541   0.542   0.543
  0.544   0.546   0.546   0.547   0.548   0.549   0.550   0.550
  0.551   0.552   0.553   0.553   0.553   0.555   0.556   0.556
  0.556   0.558   0.558   0.559   0.560   0.561   0.562   0.563
  0.564   0.564   0.566   0.566   0.567   0.569   0.569   0.570
  0.571   0.571   0.572   0.573   0.574   0.575   0.575   0.577
  0.577   0.579   0.580   0.580   0.582   0.582   0.583   0.583
  0.584   0.586   0.587   0.588   0.588   0.590   0.590   0.591
  0.591   0.592   0.594   0.595   0.595   0.596   0.598   0.599
  0.602   0.603   0.603   0.604   0.605   0.606   0.607   0.607
  0.609   0.610   0.610   0.612   0.612   0.614   0.615   0.616
  0.618   0.619   0.620   0.621   0.622   0.623   0.624   0.624
  0.625   0.627   0.628   0.629   0.630   0.631   0.632   0.632
  0.633   0.633   0.634   0.635   0.636   0.637   0.637   0.639
  0.640   0.641   0.643   0.643   0.645   0.646   0.647   0.647
  0.648   0.649   0.651   0.652   0.653   0.654   0.654   0.656
  0.657   0.658   0.659   0.660   0.660   0.661   0.662   0.663
  0.663   0.664   0.664   0.665   0.666   0.667   0.667   0.668
  0.669   0.670   0.671   0.673   0.674   0.674   0.676   0.677
  0.678   0.680   0.682   0.682   0.683   0.684   0.685   0.686
  0.688   0.690   0.690   0.691   0.693   0.693   0.695   0.696
  0.696   0.698   0.699   0.700   0.702   0.703   0.704   0.706
  0.706   0.707   0.708   0.709   0.711   0.712   0.714   0.716
  0.717   0.717   0.719   0.721   0.721   0.723   0.723   0.725
  0.727   0.727   0.728   0.729   0.731   0.731   0.732   0.734
  0.735   0.738   0.738   0.741   0.742   0.744   0.744   0.747
  0.749   0.751   0.752   0.753   0.754   0.755   0.756   0.759
  0.761   0.761   0.763   0.764   0.764   0.766   0.767   0.768
  0.770   0.770   0.772   0.773   0.774   0.775   0.777   0.778
  0.778   0.779   0.782   0.782   0.783   0.785   0.786   0.787
  0.787   0.792   0.793   0.795   0.795   0.796   0.797   0.797
  0.798   0.799   0.800   0.800   0.802   0.804   0.804   0.805
  0.805   0.806   0.808   0.809   0.810   0.810   0.811   0.813
  0.813   0.813   0.815   0.815   0.816   0.817   0.817   0.818
  0.818   0.818   0.819   0.821   0.821   0.824   0.825   0.825
  0.827   0.829   0.830   0.830   0.831   0.832   0.834   0.835
  0.836   0.837   0.840   0.843   0.848   0.850   0.850   0.851
  0.852   0.854   0.858   0.859   0.863   0.865   0.871   0.874
  0.877   0.878   0.879   0.883   0.886   0.889   0.890   0.894
  0.896   0.897   0.899   0.904   0.906   0.908   0.912   0.913
  0.914   0.916   0.916   0.918   0.920   0.921   0.922   0.924
  0.927   0.929   0.929   0.932   0.932   0.933   0.935   0.937
  0.939   0.940   0.941   0.944   0.946   0.947   0.948   0.951
  0.954   0.955   0.958   0.961   0.963   0.966   0.967   0.972
  0.974   0.975   0.981   0.982   0.984   0.986   0.989   0.990
  0.993   0.996   0.997   1.000   1.002   1.003   1.006   1.007
  1.010   1.011   1.012   1.015   1.017   1.018   1.019   1.022
  1.022   1.024   1.025   1.026   1.027   1.028   1.031   1.033
  1.035   1.036   1.036   1.038   1.041   1.042   1.045   1.045
  1.048   1.048   1.049   1.051   1.052   1.053   1.058   1.058
  1.060   1.062   1.063   1.066   1.067   1.069   1.072   1.072
  1.074   1.077   1.078   1.079   1.080   1.080   1.081   1.084
  1.084   1.086   1.087   1.089   1.089   1.091   1.093   1.097
  1.097   1.100   1.102   1.105   1.106   1.109   1.111   1.111
  1.115   1.116   1.117   1.118   1.124   1.125   1.127   1.128
  1.131   1.132   1.136   1.137   1.138   1.142   1.144   1.145
  1.147   1.149   1.149   1.152   1.154   1.156   1.157   1.159
  1.160   1.161   1.164   1.166   1.168   1.169   1.170   1.172
  1.174   1.176   1.177   1.179   1.180   1.181   1.184   1.184
  1.187   1.190   1.191   1.194   1.196   1.199   1.200   1.203
  1.205   1.207   1.210   1.211   1.211   1.217   1.218   1.221
  1.223   1.226   1.229   1.232   1.236   1.237   1.238   1.241
  1.242   1.244   1.247   1.248   1.251   1.253   1.254   1.257
  1.262   1.263   1.265   1.267   1.267   1.271   1.272   1.272
  1.273   1.276   1.277   1.282   1.285   1.286   1.287   1.290
  1.292   1.295   1.300   1.301   1.302   1.305   1.307   1.309
  1.311   1.314   1.315   1.320   1.323   1.325   1.326   1.327
  1.328   1.332   1.334   1.335   1.338   1.340   1.341   1.344
  1.347   1.350   1.352   1.354   1.358   1.359   1.362   1.365
  1.365   1.368   1.369   1.373   1.375   1.378   1.380   1.384
  1.386   1.388   1.389   1.393   1.394   1.398   1.402   1.403
  1.406   1.408   1.412   1.413   1.417   1.422   1.423   1.426
  1.428   1.429   1.435   1.437   1.441   1.443   1.448   1.449
  1.450   1.453   1.454   1.456   1.458   1.460   1.462   1.465
  1.466   1.468   1.469   1.470   1.472   1.473   1.474   1.476
  1.477   1.479   1.482   1.482   1.484   1.487   1.488   1.491
  1.494   1.496   1.499   1.502   1.510   1.511   1.514   1.517
  1.518   1.520   1.524   1.527   1.529   1.532   1.535   1.539
  1.541   1.544   1.547   1.548   1.548   1.553   1.555   1.555
  1.560   1.560   1.562   1.564   1.566   1.569   1.570   1.573
  1.573   1.577   1.579   1.582   1.583   1.586   1.587   1.589
  1.593   1.596   1.598   1.600   1.604   1.608   1.610   1.612
  1.617   1.617   1.627   1.630   1.631   1.633   1.635   1.640
  1.645   1.647   1.647   1.653   1.655   1.658   1.660   1.664
  1.675   1.678   1.681   1.685   1.688   1.689   1.693   1.699
  1.700   1.702   1.703   1.705   1.707   1.708   1.712   1.713
  1.715   1.718   1.719   1.720   1.724   1.724   1.726   1.727
  1.729   1.731   1.734   1.735   1.736   1.738   1.741   1.743
  1.743   1.745   1.748   1.748   1.749   1.750   1.752   1.753
  1.755   1.756   1.756   1.757   1.759   1.761   1.762   1.765
  1.766   1.768   1.770   1.770   1.771   1.774   1.775   1.776
  1.776   1.777   1.778   1.779   1.780   1.782   1.785   1.785
  1.787   1.787   1.791   1.791   1.792   1.794   1.795   1.795
  1.797   1.798   1.799   1.800   1.801   1.802   1.803   1.804
  1.805   1.805   1.808   1.809   1.811   1.814   1.816   1.817
  1.823   1.825   1.826   1.830   1.831   1.833   1.835   1.837
  1.840   1.843   1.845   1.846   1.847   1.850   1.853   1.855
  1.855   1.856   1.856   1.857   1.859   1.863   1.864   1.866
  1.868   1.869   1.871   1.872   1.875   1.879   1.880   1.881
  1.885   1.886   1.887   1.890   1.891   1.892   1.896   1.900
  1.902   1.903   1.906   1.908   1.910   1.912   1.914   1.915
  1.919   1.920   1.922   1.925   1.927   1.929   1.929   1.931
  1.933   1.934   1.936   1.939   1.943   1.943   1.946   1.950
  1.951   1.953   1.953   1.956   1.957   1.959   1.961   1.964
  1.967   1.968   1.970   1.973   1.975   1.976   1.979   1.980
  1.981   1.983   1.985   1.985   1.987   1.989   1.992   1.994
  1.995   1.996   1.998   1.999   2.001   2.002   2.003   2.003
  2.006   2.006   2.007   2.010   2.011   2.012   2.014   2.015
  2.016   2.018   2.019   2.020   2.021   2.022   2.022   2.025
  2.026   2.026   2.027   2.029   2.031   2.032   2.032   2.033
  2.035   2.035   2.037   2.039   2.040   2.041   2.042   2.044
  2.044   2.046   2.048   2.050   2.050   2.052   2.053   2.054
  2.056   2.056   2.058   2.059   2.061   2.062   2.063   2.065
  2.065   2.066   2.066   2.069   2.073   2.074   2.075   2.076
  2.077   2.078   2.080   2.082   2.083   2.085   2.085   2.087
  2.090   2.092   2.094   2.095   2.096   2.098   2.104   2.104
  2.106   2.106   2.109   2.113   2.114   2.118   2.120   2.122
  2.125   2.126   2.130   2.133   2.134   2.140   2.141   2.145
  2.147   2.147   2.153   2.154   2.157   2.163   2.164   2.169
  2.174   2.178   2.183   2.186   2.190   2.193   2.194   2.202
  2.203   2.207   2.210   2.214   2.215   2.216   2.221   2.222
  2.224   2.231   2.233   2.234   2.237   2.239   2.241   2.243
  2.246   2.249   2.251   2.252   2.255   2.258   2.260   2.264
  2.266   2.268   2.272   2.273   2.274   2.276   2.278   2.279
  2.279   2.282   2.288   2.289   2.291   2.292   2.293   2.296
  2.300   2.302   2.303   2.304   2.306   2.311   2.311   2.316
  2.316   2.322   2.324   2.325   2.327   2.329   2.330   2.333
  2.335   2.339   2.342   2.343   2.345   2.347   2.348   2.350
  2.353   2.358   2.359   2.360   2.363   2.364   2.365   2.367
  2.367   2.369   2.374   2.374   2.375   2.376   2.378   2.381
  2.381   2.382   2.384   2.385   2.386   2.389   2.391   2.393
  2.394   2.396   2.397   2.399   2.400   2.401   2.402   2.403
  2.406   2.407   2.410   2.411   2.414   2.415   2.417   2.419
  2.419   2.425   2.426   2.431   2.431   2.435   2.435   2.437
  2.444   2.449   2.451   2.453   2.455   2.457   2.459   2.461
  2.464   2.467   2.468   2.471   2.472   2.473   2.475   2.478
  2.480   2.481   2.482   2.484   2.484   2.488   2.490   2.491
  2.493   2.494   2.497   2.500   2.502   2.502   2.503   2.505
  2.506   2.507   2.510   2.512   2.514   2.515   2.516   2.520
  2.521   2.523   2.527   2.530   2.531   2.535   2.537   2.541
  2.543   2.544   2.549   2.551   2.555   2.561   2.563   2.565
  2.568   2.571   2.572   2.573   2.578   2.580   2.585   2.590
  2.592   2.594   2.594   2.596   2.598   2.600   2.601   2.604
  2.606   2.609   2.610   2.611   2.614   2.615   2.619   2.620
  2.622   2.625   2.626   2.627   2.628   2.629   2.629   2.632
  2.635   2.635   2.637   2.637   2.641   2.642   2.643   2.645
  2.648   2.649   2.650   2.651   2.654   2.656   2.657   2.659
  2.659   2.661   2.665   2.668   2.668   2.668   2.670   2.671
  2.675   2.676   2.678   2.681   2.682   2.685   2.686   2.690
  2.691   2.693   2.694   2.695   2.696   2.698   2.700   2.703
  2.707   2.709   2.710   2.711   2.718   2.721   2.722   2.726
  2.729   2.730   2.733   2.736   2.740   2.741   2.743   2.744
  2.745   2.746   2.748   2.750   2.753   2.756   2.756   2.758
  2.763   2.764   2.766   2.767   2.770   2.770   2.772   2.775
  2.777   2.778   2.780   2.782   2.784   2.788   2.789   2.793
  2.795   2.799   2.799   2.802   2.805   2.810   2.813   2.815
  2.820   2.824   2.826   2.830   2.833   2.835   2.838   2.841
  2.847   2.847   2.850   2.853   2.855   2.855   2.858   2.861
  2.862   2.864   2.865   2.867   2.870   2.872   2.873   2.874
  2.878   2.881   2.883   2.884   2.887   2.888   2.889   2.891
  2.894   2.894   2.898   2.898   2.900   2.902   2.904   2.906
  2.906   2.906   2.910   2.911   2.913   2.915   2.916   2.918
  2.921   2.921   2.923   2.924   2.925   2.927   2.929   2.932
  2.933   2.934   2.937   2.938   2.944   2.946   2.950   2.953
  2.954   2.957   2.958   2.961   2.964   2.969   2.974   2.975
  2.981   2.984   2.986   2.992   2.993   2.996   3.002   3.003
  3.004   3.007   3.010   3.011   3.014   3.017   3.021   3.022
  3.024   3.026   3.028   3.028   3.030   3.032   3.035   3.038
  3.041   3.045   3.050   3.052   3.053   3.056   3.058   3.060
  3.066   3.068   3.070   3.077   3.079   3.086   3.096   3.101
  3.103   3.109   3.117   3.121   3.124   3.131   3.134   3.135
  3.140   3.150   3.156   3.170   3.173   3.180   3.182   3.184
  3.188   3.192   3.196   3.200   3.215   3.230   3.232   3.236
  3.239   3.251   3.255   3.265   3.270   3.275   3.281   3.284
  3.286   3.294   3.309   3.315   3.318   3.319   3.320   3.325
  3.327   3.333   3.337   3.342   3.345   3.355   3.379   3.380
  3.386   3.407   3.410   3.418   3.421   3.435   3.443   3.447
  3.451   3.452   3.453   3.463   3.468   3.473   3.482   3.488
  3.490   3.494   3.508   3.515   3.517   3.527   3.529   3.535
  3.537   3.568   3.569   3.570   3.577   3.589   3.594   3.605
  3.610   3.627   3.680   3.693   3.813   3.845   3.965   4.008
  4.071   4.076   4.079   4.083   4.084   4.086   4.091   4.093
  4.094   4.100   4.103   4.105   4.107   4.110   4.112   4.116
  4.119   4.124   4.127   4.128   4.136   4.141   4.145   4.150
  4.154   4.158   4.162   4.163   4.166   4.171   4.175   4.182
  4.186   4.189   4.194   4.203   4.208   4.213   4.231   4.233
  4.238   4.241   4.243   4.245   4.248   4.251   4.253   4.261
  4.266   4.272   4.273   4.278   4.283   4.285   4.289   4.290
  4.293   4.299   4.305   4.314   4.373   4.378   4.383   4.387
  4.394   4.399   4.403   4.404   4.411   4.411   4.412   4.415
  4.417   4.418   4.421   4.425   4.428   4.441   4.458   4.459
  4.462   4.474   4.492   4.511   4.528   4.534   4.542   4.548
  4.553   4.560   4.599   4.607   4.622   4.624   4.626   4.634
  4.637   4.644   4.670   4.676   4.679   4.691   4.692   4.696
  4.699   4.702   4.710   4.713   4.730   4.755   4.793   4.808
  4.821   4.836   4.850   4.860   4.871   4.875   4.881   4.890
  4.898   4.899   4.949   4.960   4.968   4.972   4.976   4.981
  4.983   4.990   4.996   5.011   5.144   5.163   5.172   5.184
  5.190   5.191   5.204   5.224   5.311   5.316   5.334   5.346
  5.356   5.372
 --------------------------------------------------------------
 
          Ground-State Mulliken Net Atomic Charges

     Atom                 Charge (a.u.)
  ----------------------------------------
      1 O                    -0.478495
      2 C                    -0.101757
      3 H                     0.123878
      4 H                     0.131404
      5 H                     0.141693
      6 O                    -0.464024
      7 C                     0.630642
      8 C                    -0.283613
      9 H                     0.135599
     10 H                     0.122769
     11 C                    -0.171896
     12 H                     0.130430
     13 H                     0.103400
     14 C                    -0.179463
     15 H                     0.104611
     16 H                     0.102059
     17 C                     0.014659
     18 C                     0.060370
     19 C                    -0.108037
     20 H                     0.110270
     21 C                    -0.092397
     22 H                     0.093822
     23 C                    -0.089822
     24 H                     0.100691
     25 C                    -0.091621
     26 H                     0.091673
     27 C                    -0.096872
     28 H                     0.095768
     29 C                     0.006359
     30 C                     0.004336
     31 C                     0.007498
     32 C                    -0.024791
     33 C                    -0.000935
     34 C                    -0.013088
     35 C                    -0.005733
     36 C                     0.023693
     37 C                     0.043978
     38 C                     0.033463
     39 C                    -0.077948
     40 C                    -0.019590
     41 C                    -0.033881
     42 C                    -0.008345
     43 C                    -0.007959
     44 C                     0.008793
     45 C                    -0.111119
     46 C                     0.005329
     47 C                    -0.021107
     48 C                    -0.006181
     49 C                    -0.009772
     50 C                    -0.019731
     51 C                    -0.006799
     52 C                     0.023886
     53 C                     0.049674
     54 C                    -0.007649
     55 C                    -0.002965
     56 C                    -0.026943
     57 C                    -0.012055
     58 C                     0.025444
     59 C                    -0.014348
     60 C                     0.023320
     61 C                    -0.003152
     62 C                     0.021169
     63 C                     0.033635
     64 C                     0.004025
     65 C                    -0.020373
     66 C                     0.022169
     67 C                    -0.022406
     68 C                     0.000448
     69 C                     0.002106
     70 C                     0.049666
     71 C                     0.008031
     72 C                    -0.003838
     73 C                    -0.022487
     74 C                    -0.003415
     75 C                     0.025431
     76 C                    -0.004907
     77 C                    -0.005190
     78 C                    -0.028819
     79 C                    -0.004893
     80 C                     0.023841
     81 C                    -0.000597
     82 C                     0.000107
     83 C                     0.012212
     84 C                    -0.027771
     85 C                     0.000577
     86 C                     0.014273
     87 C                    -0.029861
     88 C                     0.014152
     89 O                    -0.470190
     90 C                    -0.074067
     91 H                     0.125711
     92 H                     0.127172
     93 H                     0.121720
     94 O                    -0.474827
     95 C                     0.570351
     96 C                    -0.246095
     97 H                     0.127823
     98 H                     0.137396
     99 C                    -0.178061
    100 H                     0.125173
    101 H                     0.122934
    102 C                    -0.190947
    103 H                     0.110166
    104 H                     0.112800
    105 C                     0.006322
    106 C                     0.094209
    107 C                    -0.100161
    108 H                     0.092359
    109 C                    -0.099706
    110 H                     0.088484
    111 C                    -0.081785
    112 H                     0.093710
    113 C                    -0.091070
    114 H                     0.093237
    115 C                    -0.112364
    116 H                     0.090958
    117 C                     0.043634
    118 C                    -0.005904
    119 C                     0.016306
    120 C                    -0.010721
    121 C                     0.008176
    122 C                    -0.022391
    123 C                     0.033498
    124 C                    -0.014879
    125 C                    -0.014229
    126 C                    -0.001744
    127 C                    -0.104605
    128 C                     0.012954
    129 C                    -0.018651
    130 C                    -0.003580
    131 C                     0.032666
    132 C                    -0.007186
    133 C                    -0.081848
    134 C                     0.025885
    135 C                    -0.025782
    136 C                     0.002611
    137 C                     0.018651
    138 C                    -0.010384
    139 C                    -0.016292
    140 C                     0.025686
    141 C                     0.053033
    142 C                     0.016546
    143 C                    -0.016586
    144 C                    -0.023710
    145 C                    -0.003855
    146 C                    -0.011694
    147 C                    -0.002280
    148 C                     0.027619
    149 C                    -0.019388
    150 C                    -0.024713
    151 C                     0.013956
    152 C                    -0.031042
    153 C                     0.007521
    154 C                    -0.004799
    155 C                    -0.010303
    156 C                     0.013720
    157 C                     0.022417
    158 C                    -0.003632
    159 C                    -0.008708
    160 C                    -0.009230
    161 C                     0.016988
    162 C                    -0.022584
    163 C                     0.013782
    164 C                    -0.010966
    165 C                     0.018159
    166 C                    -0.008379
    167 C                    -0.013916
    168 C                     0.016806
    169 C                    -0.013213
    170 C                    -0.015611
    171 C                     0.002661
    172 C                    -0.009928
    173 C                    -0.005796
    174 C                     0.008594
    175 C                    -0.006756
    176 C                     0.027456
  ----------------------------------------
  Sum of atomic charges =     0.000000

 -----------------------------------------------------------------
                    Cartesian Multipole Moments
 -----------------------------------------------------------------
    Charge (ESU x 10^10)
                 0.0000
    Dipole Moment (Debye)
         X       1.5640      Y      -2.7708      Z       1.6947
       Tot       3.6050
    Quadrupole Moments (Debye-Ang)
        XX    -786.4091     XY     -20.7815     YY    -803.8623
        XZ       6.8833     YZ     -26.2961     ZZ    -804.0976
    Octopole Moments (Debye-Ang^2)
       XXX      -9.8138    XXY     -92.3683    XYY     152.4999
       YYY    -258.3568    XXZ     211.2933    XYZ       2.4560
       YYZ     -71.8175    XZZ      85.4788    YZZ    -262.5280
       ZZZ     349.6149
    Hexadecapole Moments (Debye-Ang^3)
      XXXX -126856.4152   XXXY   -3346.6506   XXYY  -29026.3309
      XYYY   -1616.4933   YYYY  -49467.9074   XXXZ   -1108.2601
      XXYZ      53.9923   XYYZ     827.9300   YYYZ   -1840.6531
      XXZZ  -26085.4248   XYZZ    -772.2618   YYZZ  -13906.2913
      XZZZ     751.6341   YZZZ   -2215.9851   ZZZZ  -30941.2987
 -----------------------------------------------------------------
Archival summary:
1\1\mn251\SP\ProcedureUnspecified\6-31G**\428\afmv_a\FriOct1218:29:272018FriOct1218:29:272018\0\\#,ProcedureUnspecified,6-31G**,\\0,1\C\C,1,1.37616\C,2,1.3597,1,120.343\C,1,1.37766,2,121.536,3,-11.3344,0\C,4,1.39048,1,120.246,2,9.95305,0\C,1,1.40161,2,110.349,3,138.848,0\C,6,1.37849,1,106.683,2,-0.606372,0\C,6,1.37966,1,120.665,2,-147.979,0\C,8,1.35549,6,123.205,1,143.304,0\C,9,1.35925,8,116.978,6,-5.2283,0\C,8,1.36119,6,120.219,1,-2.38397,0\C,10,1.39233,9,118.981,8,-131.258,0\C,12,1.34937,10,107.37,9,144.557,0\C,11,1.39856,8,113.171,6,147.245,0\C,4,1.40185,1,119.589,2,145.324,0\C,5,1.40239,4,111.784,1,146.969,0\C,13,1.40856,12,112.093,10,-2.11613,0\C,17,1.37053,13,104.581,12,1.76714,0\C,15,1.40868,4,107.87,1,-142.701,0\C,19,1.36757,15,120.974,4,144.393,0\C,2,1.41268,1,106.591,3,-132.868,0\C,21,1.38402,2,122.661,1,137.295,0\C,22,1.39461,21,118.163,2,-139.76,0\C,22,1.40205,21,121.44,2,-0.779057,0\C,24,1.38669,22,107.749,21,-140.171,0\C,25,1.38946,24,109.351,22,-0.440293,0\C,24,1.38983,22,117.026,21,0.17402,0\C,27,1.39849,24,117.774,22,-134.757,0\C,28,1.37955,27,123.003,24,-2.16478,0\C,25,1.40419,24,120.209,22,140.357,0\C,30,1.39769,25,120.748,24,-138.166,0\C,31,1.40988,30,109.039,25,143.355,0\C,32,1.36926,31,119.743,30,-145.017,0\C,33,1.3985,32,119.475,31,143.408,0\C,33,1.4026,32,117.729,31,0.380321,0\C,35,1.41532,33,106.354,32,145.192,0\C,36,1.35575,35,119.607,33,-141.789,0\C,37,1.39995,36,123.898,35,139.501,0\C,35,1.41742,33,123.573,32,-3.79512,0\C,39,1.37148,35,118.834,33,6.38036,0\C,40,1.39453,39,109.197,35,139.938,0\C,41,1.3897,40,107.702,39,-5.06148,0\C,42,1.38792,41,106.969,40,5.67722,0\C,20,1.4179,19,116.967,15,-1.01267,0\C,44,1.40798,20,107.451,19,-137.95,0\C,45,1.38775,44,109.345,20,-0.098024,0\C,46,1.37369,45,121.796,44,145.944,0\C,46,1.39928,45,108.341,44,0.511333,0\C,48,1.41542,46,124.5,45,145.778,0\C,49,1.3948,48,121.398,46,-134.846,0\C,50,1.41527,49,107.407,48,133.215,0\C,51,1.38791,50,107.895,49,5.18522,0\C,52,1.38725,51,110.836,50,-5.1155,0\C,51,1.40656,50,121.72,49,-138.801,0\C,54,1.35509,51,121.216,50,1.98552,0\C,52,1.41642,51,118.311,50,-142.421,0\C,12,1.42088,10,122.582,9,-1.13155,0\C,57,1.38793,12,120.288,10,137.997,0\C,57,1.49051,12,121.02,10,-10.2933,0\C,59,1.45989,57,114.307,12,11.3587,0\C,60,1.49116,59,61.1657,57,-119.48,0\C,61,1.53364,60,117.937,59,-107.78,0\H,62,1.0964,61,112.076,60,45.4645,0\H,62,1.09733,61,110.261,60,163.95,0\C,62,1.4977,61,113.224,60,-79.4863,0\H,65,1.09674,62,106.939,61,-45.3605,0\H,65,1.09682,62,109.918,61,68.5652,0\C,61,1.55154,60,119.089,59,109.362,0\C,68,1.44472,61,122.8,60,-121.934,0\H,69,1.08589,68,115.947,61,2.71293,0\C,69,1.39015,68,120.241,61,-174.498,0\H,71,1.08641,69,120.95,68,166.245,0\C,71,1.39794,69,122.935,68,5.0991,0\H,73,1.08638,71,120.848,69,169.398,0\C,68,1.44774,61,119.357,60,64.3317,0\H,75,1.08601,68,123.375,61,2.31302,0\C,75,1.38076,68,120.568,61,176.587,0\H,77,1.0855,75,108.598,68,-177.361,0\C,65,1.56329,62,112.296,61,-168.23,0\H,79,1.09666,65,113.332,62,-55.884,0\H,79,1.09696,65,103.827,62,54.3977,0\C,79,1.50469,65,112.059,62,174.278,0\O,82,1.21194,79,116.95,65,-19.1721,0\O,82,1.37785,79,115.15,65,161.312,0\C,84,1.45707,82,114.821,79,-176.586,0\H,85,1.0969,84,114.909,82,176.3,0\H,85,1.09698,84,106.327,82,63.8648,0\H,85,1.09744,84,112.813,82,-41.818,0\H,55,2.59222,54,83.0539,51,-120.862,0\C,89,1.08614,55,119.753,54,-163.271,0\C,90,1.39505,89,119.743,55,144.697,0\H,91,1.08544,90,118.434,89,7.93496,0\C,91,1.4205,90,117.613,89,178.644,0\H,93,1.08589,91,119.436,90,-173.602,0\C,93,1.39481,91,121.523,90,10.6304,0\H,95,1.0859,93,111.063,91,177.29,0\C,95,1.40176,93,121.439,91,-9.22454,0\C,97,1.42447,95,117.022,93,1.08718,0\H,98,1.08609,97,117.346,95,-166.136,0\C,97,1.47825,95,119.073,93,-166.748,0\C,100,1.51818,97,117.467,95,-118.78,0\C,101,1.49373,100,131.57,97,-145.011,0\C,102,1.35051,101,110.122,100,154.392,0\C,103,1.40933,102,110.713,101,1.9045,0\C,104,1.37482,103,107.983,102,5.5045,0\C,105,1.40898,104,118.683,103,135.475,0\C,106,1.37631,105,122.546,104,-135.162,0\C,107,1.40587,106,113.002,105,147.916,0\C,108,1.39281,107,121.257,106,-139.843,0\C,109,1.386,108,119.894,107,-6.14472,0\C,110,1.38486,109,122.112,108,1.52982,0\C,111,1.3962,110,118.817,109,133.776,0\C,112,1.40183,111,125.498,110,7.93441,0\C,109,1.40227,108,123.054,107,132.887,0\C,113,1.40898,112,116.987,111,-6.35055,0\C,115,1.38845,113,110.164,112,-141.612,0\C,116,1.38699,115,119,113,139.434,0\C,117,1.38223,116,121.004,115,3.2559,0\C,118,1.36835,117,120.738,116,2.69427,0\C,116,1.40517,115,106.273,113,0.766765,0\C,120,1.37964,116,120.514,115,140.424,0\C,106,1.40973,105,122.462,104,7.41422,0\C,122,1.38567,106,107.537,105,-144.754,0\C,121,1.41087,120,122.19,116,-133.562,0\C,124,1.38009,121,110.711,120,142.218,0\C,124,1.40618,121,121.413,120,-7.70928,0\C,126,1.40724,124,117.023,121,8.381,0\C,127,1.40983,126,109.918,124,135.669,0\C,113,1.41207,112,120.64,111,-140.252,0\C,125,1.41275,124,109.74,121,-1.60265,0\C,130,1.3871,125,119.626,124,-138.932,0\C,131,1.38668,130,121.463,125,133.742,0\C,132,1.35194,131,107.808,130,-143.408,0\C,132,1.37026,131,117.257,130,1.94371,0\C,134,1.37733,132,124.229,131,-2.33296,0\C,133,1.38793,132,110.984,131,-1.46287,0\C,136,1.37191,133,106.287,132,0.359545,0\C,130,1.40421,125,104.147,124,0.450492,0\C,134,1.40507,132,116.297,131,-140.358,0\C,126,1.41466,124,121.895,121,140.902,0\C,140,1.40991,126,110.457,124,-136.663,0\C,128,1.41506,127,123.615,126,-148.916,0\C,133,1.4188,132,118.727,131,145.66,0\C,143,1.37775,133,118.787,132,-139.608,0\C,143,1.38562,133,121.756,132,-0.952156,0\C,144,1.3922,143,108.025,133,141.419,0\C,146,1.40133,144,109.253,143,2.74074,0\C,137,1.42015,136,117.047,133,137.144,0\C,148,1.38711,137,121.143,136,4.5883,0\C,149,1.38588,148,121.908,137,-2.03156,0\C,150,1.38734,149,119.382,148,-136.923,0\C,151,1.39173,150,107.61,149,141.34,0\C,150,1.39681,149,118.137,148,-0.812811,0\C,152,1.39884,151,108.688,150,-1.72919,0\C,149,1.40726,148,107.117,137,-147.012,0\C,148,1.4123,137,120.603,136,-141.069,0\C,155,1.41594,149,108.462,148,-2.01502,0\C,110,1.43489,109,110.311,108,146.206,0\C,107,1.44538,106,121.907,105,-2.64444,0\C,159,1.48721,107,119.635,106,0.483597,0\C,100,1.54209,97,112.965,95,102.039,0\H,161,1.09645,100,110.009,97,49.4135,0\H,161,1.09693,100,110.004,97,158.368,0\C,161,1.52468,100,114.094,97,-74.2948,0\H,164,1.09619,161,120.842,100,42.6617,0\H,164,1.09703,161,105,100,-69.2595,0\C,164,1.5757,161,105.518,100,171.69,0\H,167,1.09619,164,115.899,161,-70.3127,0\H,167,1.0978,164,105.944,161,45.3793,0\C,167,1.55218,164,117.203,161,160.792,0\O,170,1.24755,167,125.332,164,117.63,0\O,170,1.39005,167,112.32,164,-55.975,0\C,172,1.43481,170,123.764,167,176.741,0\H,173,1.09653,172,110.6,170,-174.138,0\H,173,1.09694,172,109.031,170,-62.5255,0\H,173,1.09729,172,112.754,170,66.8698,0\\\@

 Total job time:  867.91s(wall), 8170.75s(cpu) 
 Fri Oct 12 18:29:27 2018

        *************************************************************
        *                                                           *
        *  Thank you very much for using Q-Chem.  Have a nice day.  *
        *                                                           *
        *************************************************************


