
Running Job 1 of 1 ./10/12.qcin
qchem ./10/12.qcin_28805.0 /tmpu/cab_g/afmv_a/scratch_qchem/qchem28805/ 1
/tmpu/appuserlic/qchem4.4/serial-multicore/exe/qcprog.exe_s ./10/12.qcin_28805.0 /tmpu/cab_g/afmv_a/scratch_qchem/qchem28805/
Check license passed

                  Welcome to Q-Chem
     A Quantum Leap Into The Future Of Chemistry


 Q-Chem 4.4, Q-Chem, Inc., Pleasanton, CA (2016)

 Y. Shao,  Z. Gan,  E. Epifanovsky,  A. T. B. Gilbert,  M. Wormit,  
 J. Kussmann,  A. W. Lange,  A. Behn,  J. Deng,  X. Feng,  D. Ghosh,  
 M. Goldey,  P. R. Horn,  L. D. Jacobson,  I. Kaliman,  F. Rob,  
 R. Z. Khaliullin,  T. Kus,  A. Landau,  J. Liu,  E. I. Proynov,  Y. M. Rhee,  
 R. M. Richard,  M. A. Rohrdanz,  R. P. Steele,  E. J. Sundstrom,  
 H. L. Woodcock III,  P. M. Zimmerman,  D. Zuev,  B. Albrecht,  E. Alguire,  
 B. Austin,  S. A. Baeppler,  G. J. O. Beran,  Y. A. Bernard,  E. Berquist,  
 K. Brandhorst,  K. B. Bravaya,  S. T. Brown,  D. Casanova,  C.-M. Chang,  
 Y. Chen,  S. H. Chien,  K. D. Closser,  M. P. Coons,  D. L. Crittenden,  
 S. Dasgupta,  M. Diedenhofen,  R. A. DiStasio Jr.,  H. Do,  A. D. Dutoi,  
 R. G. Edgar,  P.-T. Fang,  S. Fatehi,  Q. Feng,  L. Fusti-Molnar,  
 A. Ghysels,  A. Golubeva-Zadorozhnaya,  J. Gomes,  A. Gunina,  
 M. W. D. Hanson-Heine,  P. H. P. Harbach,  A. W. Hauser,  J. E. Herr,  
 E. G. Hohenstein,  Z. C. Holden,  K. Hui,  T.-C. Jagau,  H. Ji,  B. Kaduk,  
 K. Khistyaev,  Jaehoon Kim,  Jihan Kim,  R. A. King,  P. Klunzinger,  
 K. Koh,  D. Kosenkov,  T. Kowalczyk,  C. M. Krauter,  A. Kunitsa,  
 K. U. Lao,  A. Laurent,  K. V. Lawler,  J. Lee,  D. Lefrancois,  S. Lehtola,  
 S. V. Levchenko,  C. Y. Lin,  Y.-S. Lin,  F. Liu,  E. Livshits,  
 R. C. Lochan,  A. Luenser,  P. Manohar,  S. F. Manzer,  S.-P. Mao,  Y. Mao,  
 N. Mardirossian,  A. V. Marenich,  L. A. Martinez-Martinez,  S. A. Maurer,  
 N. J. Mayhall,  J.-M. Mewes,  A. F. Morrison,  K. Nanda,  T. S. Nguyen-Beck,  
 C. M. Oana,  R. Olivares-Amaya,  D. P. O'Neill,  J. A. Parkhill,  
 T. M. Perrine,  R. Peverati,  P. A. Pieniazek,  F. Plasser,  A. Prociuk,  
 D. R. Rehn,  E. Rosta,  N. J. Russ,  N. Sergueev,  S. M. Sharada,  
 S. Sharma,  D. W. Small,  A. Sodt,  T. Stauch,  T. Stein,  D. Stuck,  
 Y.-C. Su,  A. J. W. Thom,  T. Tsuchimochi,  L. Vogt,  O. Vydrov,  T. Wang,  
 M. A. Watson,  J. Wenzel,  A. White,  C. F. Williams,  V. Vanovschi,  
 K. Yao,  S. Yeganeh,  S. R. Yost,  Z.-Q. You,  I. Y. Zhang,  X. Zhang,  
 Y. Zhao,  B. R. Brooks,  G. K. L. Chan,  D. M. Chipman,  C. J. Cramer,  
 W. A. Goddard III,  M. S. Gordon,  W. J. Hehre,  A. Klamt,  
 H. F. Schaefer III,  M. W. Schmidt,  C. D. Sherrill,  D. G. Truhlar,  
 A. Warshel,  X. Xu,  A. Aspuru-Guzik,  R. Baer,  A. T. Bell,  N. A. Besley,  
 J.-D. Chai,  A. Dreuw,  B. D. Dunietz,  T. R. Furlani,  S. R. Gwaltney,  
 C.-P. Hsu,  Y. Jung,  J. Kong,  D. S. Lambrecht,  W. Liang,  C. Ochsenfeld,  
 V. A. Rassolov,  L. V. Slipchenko,  J. E. Subotnik,  T. Van Voorhis,  
 J. M. Herbert,  A. I. Krylov,  P. M. W. Gill,  M. Head-Gordon

 Contributors to earlier versions of Q-Chem not listed above: 
 R. D. Adamson,  J. Baker,  E. F. C. Byrd,  A. K. Chakraborty,  C.-L. Cheng,  
 H. Dachsel,  R. J. Doerksen,  G. Hawkins,  A. Heyden,  S. Hirata,  
 G. Kedziora,  F. J. Keil,  C. Kelley,  P. P. Korambath,  W. Kurlancheek,  
 A. M. Lee,  M. S. Lee,  D. Liotard,  I. Lotan,  P. E. Maslen,  N. Nair,  
 D. Neuhauser,  R. Olson,  B. Peters,  J. Ritchie,  N. E. Schultz,  
 N. Shenvi,  A. C. Simmonett,  K. S. Thanthiriwatte,  Q. Wu,  W. Zhang

 Please cite Q-Chem as follows:
 Y. Shao et al., Mol. Phys. 113, 184-215 (2015)
 DOI: 10.1080/00268976.2014.952696

 Q-Chem 4.4.2 for Intel X86 Linux

 Parts of Q-Chem use Armadillo 5.200.1 (Boston Tea Smuggler).
 http://arma.sourceforge.net/

 Q-Chem begins on Sat Oct  6 14:27:58 2018  

Host: 
0

     Scratch files written to /tmpu/cab_g/afmv_a/scratch_qchem/qchem28805//
 Dec716 11556_ 22328  22283 4050   
Processing $rem in /tmpu/appuserlic/qchem4.4/serial-multicore/config/preferences.
 MEM_TOTAL  2000 
FILE_GEOM_ORG=        593

Checking the input file for inconsistencies... 	...done.

--------------------------------------------------------------
User input:
--------------------------------------------------------------
$comment
SP
$end

$rem
MEM_STATIC 5000
MEM_TOTAL 20000
JOBTYPE SP
EXCHANGE B3LYP
BASIS 6-31g(d,p)
$end

$molecule
0 1
C          -9.384000    -14.784000     -6.480000
C          -8.765000    -14.155000     -5.389000
N         -10.680000    -15.144000     -6.307000
C          -9.412000    -13.866000     -4.186000
C         -11.386000    -14.804000     -5.199000
C         -10.773000    -14.186000     -4.054000
C         -11.498000    -13.966000     -2.777000
C         -10.867000    -14.191000     -1.546000
C         -12.914000    -13.660000     -2.630000
N         -11.463000    -14.056000     -0.346000
N         -13.727000    -13.460000     -3.679000
C         -13.477000    -13.464000     -1.402000
C         -12.717000    -13.628000     -0.228000
S         -15.100000    -13.048000     -2.994000
N         -14.748000    -12.943000     -1.411000
C         -13.248000    -13.394000      1.125000
S         -14.826000    -13.764000      1.699000
C         -12.404000    -13.005000      2.129000
C         -14.388000    -13.413000      3.375000
S         -10.782000    -12.473000      2.003000
C         -13.078000    -12.957000      3.351000
C         -15.101000    -13.810000      4.573000
C         -10.948000    -12.227000      3.820000
C         -12.173000    -12.557000      4.363000
N         -14.500000    -13.714000      5.722000
S         -16.634000    -14.579000      4.497000
C         -15.411000    -14.245000      6.706000
C         -16.592000    -14.650000      6.269000
C          -8.641000    -15.172000     -7.747000
H          -7.715000    -13.918000     -5.531000
H          -8.889000    -13.327000     -3.402000
H         -12.347000    -15.309000     -5.116000
H          -9.827000    -14.513000     -1.571000
H         -10.036000    -11.856000      4.268000
H         -12.381000    -12.414000      5.417000
H         -15.130000    -14.233000      7.751000
H         -17.438000    -15.032000      6.825000
H          -7.923000    -15.980000     -7.558000
C          -7.944000    -13.961000     -8.409000
H          -9.432000    -15.534000     -8.415000
H          -7.633000    -14.207000     -9.432000
H          -7.032000    -13.695000     -7.860000
C          -8.835000    -12.708000     -8.379000
H          -9.798000    -12.944000     -8.848000
C          -8.271000    -11.507000     -9.123000
H          -9.064000    -12.413000     -7.347000
H          -9.041000    -10.727000     -9.179000
H          -7.973000    -11.745000    -10.151000
C          -7.040000    -10.792000     -8.571000
H          -6.177000    -11.466000     -8.510000
C          -7.286000    -10.140000     -7.238000
H          -6.735000     -9.998000     -9.264000
H          -6.363000     -9.762000     -6.780000
H          -7.712000    -10.844000     -6.512000
H          -7.949000     -9.278000     -7.385000
C         -16.766000     -9.696000      2.170000
C         -16.982000     -8.511000      2.822000
N         -16.948000    -10.913000      2.774000
C         -17.558000     -8.473000      4.085000
C         -17.483000    -10.884000      3.992000
C         -17.820000     -9.726000      4.742000
C         -18.573000     -9.740000      6.040000
C         -19.515000     -8.714000      6.235000
C         -18.510000    -10.721000      7.020000
N         -20.343000     -8.689000      7.274000
N         -17.728000    -11.804000      7.050000
C         -19.324000    -10.610000      8.164000
C         -20.207000     -9.520000      8.296000
S         -17.978000    -12.566000      8.440000
N         -19.074000    -11.569000      9.053000
C         -21.222000     -9.401000      9.296000
S         -21.423000    -10.519000     10.673000
C         -22.066000     -8.305000      9.520000
C         -22.530000     -9.415000     11.489000
S         -22.306000     -6.815000      8.706000
C         -22.657000     -8.276000     10.796000
C         -23.200000     -9.663000     12.732000
C         -23.207000     -6.151000     10.092000
C         -23.309000     -7.043000     11.105000
N         -23.002000    -10.875000     13.283000
S         -23.864000     -8.545000     13.906000
C         -23.537000    -11.008000     14.562000
C         -23.913000     -9.814000     15.091000
C         -16.207000     -9.816000      0.795000
H         -16.678000     -7.602000      2.312000
H         -17.832000     -7.533000      4.555000
H         -17.611000    -11.901000      4.359000
H         -19.776000     -8.024000      5.433000
H         -23.624000     -5.160000      9.972000
H         -23.875000     -6.772000     11.988000
H         -23.519000    -11.946000     15.100000
H         -24.311000     -9.670000     16.086000
H         -16.078000     -8.791000      0.424000
C         -17.326000    -10.329000     -0.256000
H         -15.249000    -10.350000      0.814000
H         -18.317000     -9.943000      0.015000
H         -17.359000    -11.418000     -0.135000
C         -16.988000     -9.924000     -1.742000
H         -16.801000     -8.844000     -1.731000
C         -18.095000    -10.263000     -2.762000
H         -16.029000    -10.400000     -1.979000
H         -19.087000     -9.956000     -2.408000
H         -18.199000    -11.352000     -2.843000
C         -17.668000     -9.716000     -4.153000
H         -18.508000     -9.869000     -4.842000
C         -16.531000    -10.414000     -4.876000
H         -17.533000     -8.629000     -4.111000
H         -16.805000    -11.423000     -5.208000
H         -15.688000    -10.531000     -4.185000
H         -16.108000     -9.875000     -5.733000
$end

--------------------------------------------------------------
 ----------------------------------------------------------------
             Standard Nuclear Orientation (Angstroms)
    I     Atom           X                Y                Z
 ----------------------------------------------------------------
    1      C     -11.8016669318    -0.7884669503     0.7895799398
    2      C     -11.1635182643    -1.2829320939    -0.3581802704
    3      N     -10.9917772458    -0.4214788728     1.8135640448
    4      C      -9.7778661165    -1.3811179952    -0.4984181189
    5      C      -9.6396254507    -0.4042631520     1.6991562561
    6      C      -8.9567131315    -0.9312745098     0.5482401892
    7      C      -7.4798508496    -1.0721148058     0.4866300333
    8      C      -6.8909125340    -2.2090047819    -0.0832645559
    9      C      -6.5019550084    -0.1887074982     1.1059944272
   10      N      -5.5645527193    -2.4343170042    -0.1419590555
   11      N      -6.8459287320     0.9332288871     1.7573858801
   12      C      -5.1608098389    -0.4063702332     0.9743829979
   13      C      -4.6798579473    -1.5422123968     0.2951776850
   14      S      -5.4413685933     1.5791245118     2.1236203116
   15      N      -4.3515517281     0.6231482861     1.3892997710
   16      C      -3.2496607627    -1.8180668056     0.0812469524
   17      S      -1.9594747654    -1.5181994560     1.1775861632
   18      C      -2.8526719778    -2.5452328108    -1.0074690370
   19      C      -0.7992736434    -2.4075458065     0.1840986568
   20      S      -3.7788601593    -2.9987506677    -2.3735879944
   21      C      -1.4801075123    -2.7975761107    -0.9599964462
   22      C       0.4955290946    -2.9191490802     0.5877444916
   23      C      -2.1813676405    -3.7076401527    -2.9524267893
   24      C      -1.1093572606    -3.5544551369    -2.0970309182
   25      N       1.0938625895    -3.7853719175    -0.1753236739
   26      S       1.1660462951    -2.5626447008     2.1273994241
   27      C       2.3050741285    -4.1658894193     0.5090088757
   28      C       2.5517968489    -3.5679763539     1.6628645276
   29      C     -13.3111757567    -0.7731295899     0.9599614907
   30      H     -11.8310620836    -1.6152664710    -1.1473393868
   31      H      -9.3479365211    -1.7211348632    -1.4355707598
   32      H      -9.1185773187    -0.2648846885     2.6449456027
   33      H      -7.5601661233    -2.9656670294    -0.4900456721
   34      H      -2.2726029024    -4.1894226675    -3.9166107631
   35      H      -0.1191729120    -3.9055371077    -2.3633116079
   36      H       2.9864896543    -4.8607765809     0.0357914690
   37      H       3.4095080753    -3.6592125405     2.3161511494
   38      H     -13.7137938736    -1.7899316272     1.0500795743
   39      C     -14.0190840960    -0.0003823262    -0.1768328837
   40      H     -13.4636553503    -0.2341233112     1.9029202411
   41      H     -15.0615652283     0.2112786912     0.0918652784
   42      H     -14.0482714306    -0.6046210162    -1.0922260807
   43      C     -13.2617298310     1.2864065049    -0.5447717662
   44      H     -13.1339118669     1.8954893270     0.3583930493
   45      C     -13.9617188291     2.1672436581    -1.5685756108
   46      H     -12.2497275074     1.0582461976    -0.9029395638
   47      H     -13.4278679520     3.1232579549    -1.6425749705
   48      H     -14.9993784911     2.3937853325    -1.2962278634
   49      C     -14.0883457318     1.6857720455    -3.0119884810
   50      H     -14.6518048923     0.7469826328    -3.0748710153
   51      C     -12.7603544148     1.5426739049    -3.7037044518
   52      H     -14.6740205154     2.4107673290    -3.5908467423
   53      H     -12.8485425839     1.0543141714    -4.6826347953
   54      H     -12.0631369234     0.9243924995    -3.1242358388
   55      H     -12.3454793084     2.5433201086    -3.8792260203
   56      C       0.2580216220     1.9510073284    -0.7148670223
   57      C       1.1188955938     2.5023334737    -1.6264154226
   58      N       0.6257105332     0.9286550775     0.1209737159
   59      C       2.4668865963     2.1691738818    -1.6441338732
   60      C       1.9126543179     0.5913477202     0.0966952929
   61      C       2.9160449316     1.1380514569    -0.7467235240
   62      C       4.3832618164     0.8471405524    -0.6256679229
   63      C       5.2609021707     1.9247358770    -0.8415399335
   64      C       4.9563736227    -0.3499627080    -0.2191994229
   65      N       6.5698819133     1.8365473967    -0.6305308690
   66      N       4.3399183514    -1.4980893097     0.0759297095
   67      C       6.3572756421    -0.4445312337    -0.1088213181
   68      C       7.1624238801     0.6768104891    -0.3908533296
   69      S       5.4596662585    -2.5997277577     0.4042608756
   70      N       6.7550891792    -1.6794091780     0.1900479715
   71      C       8.5633677545     0.7714116135    -0.1210517583
   72      S       9.5803216054    -0.5839369590     0.4404543522
   73      C       9.4213007720     1.8271789945    -0.4572573126
   74      C      11.0643451951     0.3054651417     0.0987543545
   75      S       9.1742509283     3.3665320935    -1.1711581540
   76      C      10.7866179344     1.4892764455    -0.4626344285
   77      C      12.3978481605    -0.1549197997     0.3542314516
   78      C      10.9190695616     3.5547383081    -1.4775555390
   79      C      11.6285393045     2.4872966171    -1.0422878971
   80      N      12.5080187551    -1.3498521462     0.9639429630
   81      S      13.9201257937     0.3169121137    -0.3731896458
   82      C      13.8145696799    -1.8259979660     1.0411753344
   83      C      14.6692324018    -1.1179337864     0.2569242590
   84      C      -1.1850816674     2.2984867192    -0.5956320891
   85      H       0.7015353143     3.2068774016    -2.3393146096
   86      H       3.1702056646     2.6865213247    -2.2900981999
   87      H       2.0956611300    -0.2031550813     0.8182462648
   88      H       4.8904238421     2.9425237305    -0.9610334197
   89      H      11.2392459295     4.4940405598    -1.9083320163
   90      H      12.7080318617     2.5028509489    -1.1313939116
   91      H      14.0662224038    -2.7371700508     1.5665783592
   92      H      15.7201748409    -1.3352562721     0.1248033792
   93      H      -1.3704176776     3.0998309815    -1.3225467584
   94      C      -1.4860456366     3.1164107813     0.7683150938
   95      H      -1.8108525736     1.4230532447    -0.8084888593
   96      H      -0.6355523817     3.7589527577     1.0296941903
   97      H      -1.5675350303     2.3535079575     1.5512517197
   98      C      -2.7975533230     3.9866030483     0.6725131783
   99      H      -2.6992192903     4.5912324921    -0.2364662789
  100      C      -3.0489134734     4.8962253069     1.8932405932
  101      H      -3.6188852777     3.2840377570     0.4874676932
  102      H      -2.1455415202     5.4434672504     2.1900138557
  103      H      -3.2522238213     4.2781217243     2.7763662149
  104      C      -4.3089846165     5.7619374139     1.6118471634
  105      H      -4.4126059826     6.4758715704     2.4384611196
  106      C      -5.6618119310     5.0745074546     1.6124023363
  107      H      -4.1549552741     6.3826954510     0.7216267294
  108      H      -5.9555369248     4.7328500613     2.6125907454
  109      H      -5.6072240471     4.1802160564     0.9806729179
  110      H      -6.4923903279     5.6550110131     1.1916243128
 ----------------------------------------------------------------
 Molecular Point Group                 C1    NOp =  1
 Largest Abelian Subgroup              C1    NOp =  1
 Nuclear Repulsion Energy = 11286.8770467204 hartrees
 There are      270 alpha and      270 beta electrons
 Requested basis set is 6-31G(d,p)
 There are 406 shells and 1262 basis functions

 Total QAlloc Memory Limit  20000 MB
 Mega-Array Size      4888 MB
 MEM_STATIC part      5000 MB
 A cutoff of  1.0D-08 yielded  14017 shell pairs
 There are    146434 function pairs
 
 -------------------------------------------------------
 OpenMP Integral Computing Module                       
 Release: version 1.0, May 2013, Q-Chem Inc. Pittsburgh 
 -------------------------------------------------------
 Integral Job Info:
 Integral job number is                      11
 Integral operator is                         1
 short-range coefficients                     0
 long-range coefficients              100000000
 Omega coefficients                           0
 if combine SR and LR in K                    0
 Integral screening is                        0
 Integral computing path is                   2
 max size of driver memory is            800000
 size of driver memory is                593474
 size of scratch memory is             15166112
 max col of scratch BK array               1296
 max len of scratch array in speh3          155
 max len of scratch index in speh4           18
 max int batch size is                      520
 min int batch size is                       52
 fixed nKL is                                52
 max L of basis functions is                  2
 order of int derivative is                   0
 number of shells is                        406
 number of basis is                        1262
 number of cartesian basis is              1262
 number of contracted shell pairs         14017
 number of primitive shell pairs          44648
 maxK2 (contraction) of shell pair           36
 max number of K2 of shell pair               1
 max number of CS2 of shell pair           1441
 max number of PS2 of shell pair           8316
 mem total for path MDJ                  305960
 -------------------------------------------------------
 Smallest overlap matrix eigenvalue = 3.80E-04

 Scale SEOQF with 1.000000e-02/1.000000e-02/1.000000e-01

 Standard Electronic Orientation quadrupole field applied
 Nucleus-field energy     =     0.0000000397 hartrees
 Guess from superposition of atomic densities
 Warning:  Energy on first SCF cycle will be non-variational
 A restricted hybrid HF-DFT SCF calculation will be
 performed using Pulay DIIS extrapolation
 Exchange:     0.2000 Hartree-Fock + 0.0800 Slater + 0.7200 B88
 Correlation:  0.1900 VWN1RPA + 0.8100 LYP
 Using SG-1 standard quadrature grid
 SCF converges when DIIS error is below 1.0E-05
 using 16 threads for integral computing 
 -------------------------------------------------------
 OpenMP BLAS3 based DFT computing Module                
 Release: version 1.0, May 2013, Q-Chem Inc. Pittsburgh 
 -------------------------------------------------------
 ---------------------------------------
  Cycle       Energy         DIIS Error
 ---------------------------------------
    1   -5680.6903701436      2.17E-02
    2   -5662.4941859947      2.19E-03
    3   -5660.7452727762      3.50E-03
    4   -5663.2425687081      1.11E-03
    5   -5663.4985810259      3.96E-04
    6   -5663.5151582961      2.80E-04
    7   -5663.5299624111      9.71E-05
    8   -5663.5317738170      3.03E-05
    9   -5663.5319325700      1.41E-05
   10   -5663.5319730599      5.09E-06 Convergence criterion met
 ---------------------------------------
 SCF time:  CPU 1111.81 s  wall 98.93 s
 SCF   energy in the final basis set = -5663.5319730599
 Total energy in the final basis set = -5663.5319730599
 
 --------------------------------------------------------------
 
                    Orbital Energies (a.u.)
 --------------------------------------------------------------
 
 Alpha MOs
 -- Occupied --
-88.988 -88.986 -88.930 -88.920 -88.917 -88.915 -88.908 -88.902
-14.389 -14.384 -14.377 -14.370 -14.344 -14.341 -14.340 -14.335
-14.327 -14.322 -10.269 -10.262 -10.257 -10.255 -10.254 -10.249
-10.248 -10.248 -10.238 -10.237 -10.236 -10.234 -10.230 -10.230
-10.230 -10.230 -10.229 -10.228 -10.228 -10.227 -10.225 -10.223
-10.222 -10.220 -10.220 -10.219 -10.218 -10.216 -10.216 -10.214
-10.212 -10.210 -10.206 -10.206 -10.199 -10.198 -10.191 -10.190
-10.190 -10.186 -10.181 -10.180 -10.180 -10.179 -10.177 -10.175
-10.174 -10.173 -10.173 -10.169  -8.044  -8.043  -7.991  -7.978
 -7.977  -7.977  -7.969  -7.962  -6.009  -6.007  -6.003  -6.002
 -6.002  -6.001  -5.955  -5.951  -5.947  -5.943  -5.941  -5.941
 -5.939  -5.938  -5.938  -5.935  -5.934  -5.934  -5.933  -5.929
 -5.926  -5.925  -5.923  -5.918  -1.053  -1.046  -0.966  -0.962
 -0.961  -0.960  -0.933  -0.931  -0.917  -0.914  -0.908  -0.903
 -0.848  -0.837  -0.832  -0.832  -0.812  -0.812  -0.807  -0.802
 -0.801  -0.799  -0.799  -0.792  -0.786  -0.785  -0.768  -0.767
 -0.750  -0.749  -0.741  -0.741  -0.727  -0.714  -0.713  -0.711
 -0.695  -0.693  -0.678  -0.671  -0.656  -0.654  -0.647  -0.644
 -0.639  -0.636  -0.625  -0.620  -0.617  -0.609  -0.598  -0.597
 -0.595  -0.585  -0.584  -0.582  -0.576  -0.574  -0.568  -0.550
 -0.548  -0.547  -0.542  -0.539  -0.527  -0.522  -0.516  -0.507
 -0.505  -0.503  -0.499  -0.497  -0.488  -0.485  -0.479  -0.478
 -0.472  -0.469  -0.467  -0.464  -0.463  -0.458  -0.457  -0.454
 -0.444  -0.443  -0.440  -0.437  -0.437  -0.435  -0.434  -0.431
 -0.429  -0.428  -0.427  -0.424  -0.419  -0.415  -0.413  -0.412
 -0.409  -0.408  -0.407  -0.403  -0.401  -0.399  -0.397  -0.396
 -0.394  -0.393  -0.393  -0.391  -0.386  -0.385  -0.382  -0.378
 -0.376  -0.373  -0.371  -0.369  -0.368  -0.358  -0.355  -0.353
 -0.352  -0.351  -0.349  -0.347  -0.345  -0.343  -0.341  -0.341
 -0.337  -0.336  -0.336  -0.332  -0.328  -0.325  -0.322  -0.318
 -0.316  -0.316  -0.313  -0.307  -0.305  -0.303  -0.300  -0.298
 -0.297  -0.293  -0.288  -0.287  -0.282  -0.281  -0.275  -0.271
 -0.270  -0.270  -0.268  -0.266  -0.257  -0.252  -0.251  -0.245
 -0.243  -0.234  -0.233  -0.228  -0.193  -0.191
 -- Virtual --
 -0.109  -0.105  -0.069  -0.067  -0.039  -0.035  -0.026  -0.019
 -0.014  -0.009  -0.007  -0.006   0.003   0.004   0.006   0.011
  0.015   0.019   0.020   0.023   0.036   0.037   0.042   0.042
  0.051   0.054   0.061   0.062   0.074   0.074   0.083   0.093
  0.098   0.103   0.103   0.104   0.107   0.110   0.111   0.111
  0.116   0.117   0.119   0.120   0.121   0.124   0.127   0.129
  0.130   0.131   0.133   0.136   0.141   0.146   0.147   0.147
  0.151   0.154   0.154   0.157   0.158   0.160   0.162   0.163
  0.166   0.166   0.168   0.172   0.178   0.179   0.180   0.182
  0.183   0.187   0.191   0.196   0.198   0.199   0.200   0.202
  0.203   0.208   0.211   0.214   0.216   0.217   0.225   0.227
  0.230   0.231   0.234   0.235   0.237   0.238   0.240   0.241
  0.245   0.248   0.249   0.252   0.254   0.257   0.262   0.265
  0.267   0.268   0.271   0.273   0.278   0.280   0.281   0.286
  0.289   0.292   0.295   0.299   0.301   0.303   0.310   0.310
  0.312   0.322   0.323   0.325   0.329   0.332   0.333   0.335
  0.340   0.342   0.345   0.351   0.353   0.356   0.359   0.360
  0.363   0.364   0.368   0.370   0.371   0.375   0.376   0.379
  0.382   0.383   0.387   0.392   0.396   0.401   0.406   0.411
  0.414   0.419   0.424   0.426   0.432   0.434   0.439   0.443
  0.449   0.450   0.458   0.459   0.465   0.467   0.476   0.481
  0.484   0.488   0.489   0.492   0.497   0.500   0.503   0.504
  0.506   0.509   0.510   0.511   0.514   0.514   0.517   0.519
  0.523   0.524   0.525   0.526   0.527   0.530   0.531   0.536
  0.536   0.539   0.540   0.545   0.547   0.548   0.551   0.553
  0.555   0.557   0.559   0.561   0.562   0.566   0.569   0.570
  0.571   0.572   0.573   0.575   0.579   0.580   0.583   0.585
  0.588   0.591   0.593   0.597   0.597   0.599   0.602   0.604
  0.607   0.608   0.609   0.612   0.614   0.615   0.616   0.619
  0.621   0.622   0.626   0.627   0.629   0.634   0.636   0.640
  0.642   0.644   0.649   0.650   0.652   0.656   0.657   0.659
  0.661   0.663   0.665   0.667   0.669   0.670   0.677   0.679
  0.682   0.683   0.688   0.691   0.693   0.694   0.698   0.701
  0.702   0.705   0.706   0.709   0.712   0.716   0.718   0.722
  0.724   0.727   0.730   0.736   0.737   0.742   0.750   0.752
  0.755   0.761   0.764   0.766   0.770   0.771   0.775   0.776
  0.779   0.780   0.781   0.783   0.787   0.793   0.797   0.799
  0.801   0.802   0.804   0.807   0.809   0.812   0.814   0.817
  0.817   0.818   0.821   0.821   0.824   0.825   0.827   0.827
  0.828   0.833   0.836   0.836   0.838   0.839   0.842   0.843
  0.845   0.846   0.848   0.851   0.854   0.855   0.856   0.859
  0.859   0.862   0.864   0.865   0.871   0.873   0.875   0.878
  0.879   0.883   0.886   0.886   0.889   0.894   0.896   0.898
  0.900   0.902   0.904   0.905   0.908   0.909   0.915   0.916
  0.918   0.921   0.923   0.926   0.928   0.929   0.932   0.936
  0.937   0.939   0.943   0.946   0.949   0.950   0.952   0.954
  0.956   0.960   0.963   0.965   0.965   0.967   0.970   0.974
  0.978   0.982   0.982   0.988   0.990   0.993   0.996   0.998
  1.002   1.004   1.007   1.008   1.010   1.014   1.014   1.018
  1.023   1.025   1.026   1.026   1.031   1.036   1.042   1.045
  1.047   1.047   1.050   1.054   1.056   1.060   1.062   1.064
  1.067   1.072   1.074   1.078   1.082   1.086   1.090   1.092
  1.096   1.099   1.101   1.104   1.107   1.113   1.114   1.116
  1.121   1.124   1.136   1.141   1.142   1.146   1.150   1.155
  1.164   1.169   1.176   1.179   1.182   1.184   1.189   1.194
  1.197   1.200   1.202   1.209   1.210   1.222   1.224   1.234
  1.239   1.245   1.247   1.251   1.259   1.269   1.270   1.273
  1.282   1.285   1.290   1.294   1.296   1.298   1.301   1.306
  1.311   1.320   1.324   1.326   1.330   1.332   1.334   1.338
  1.340   1.347   1.352   1.360   1.362   1.365   1.368   1.371
  1.373   1.377   1.382   1.383   1.394   1.395   1.402   1.405
  1.408   1.412   1.414   1.429   1.433   1.436   1.439   1.442
  1.446   1.450   1.453   1.454   1.461   1.465   1.471   1.472
  1.483   1.485   1.490   1.493   1.498   1.505   1.517   1.524
  1.528   1.534   1.537   1.544   1.553   1.559   1.566   1.574
  1.577   1.585   1.585   1.588   1.598   1.603   1.609   1.614
  1.624   1.628   1.630   1.634   1.642   1.647   1.652   1.655
  1.662   1.664   1.665   1.668   1.683   1.686   1.687   1.691
  1.692   1.695   1.699   1.702   1.705   1.707   1.710   1.720
  1.722   1.724   1.734   1.736   1.741   1.744   1.746   1.752
  1.755   1.763   1.770   1.778   1.780   1.782   1.785   1.792
  1.793   1.795   1.797   1.806   1.807   1.813   1.816   1.822
  1.834   1.835   1.836   1.841   1.845   1.847   1.853   1.855
  1.862   1.864   1.868   1.868   1.871   1.877   1.878   1.882
  1.884   1.886   1.888   1.889   1.893   1.896   1.899   1.902
  1.904   1.907   1.909   1.919   1.920   1.924   1.927   1.932
  1.933   1.936   1.937   1.943   1.945   1.947   1.948   1.961
  1.965   1.969   1.971   1.979   1.987   1.990   1.992   1.997
  1.997   2.005   2.011   2.014   2.023   2.027   2.028   2.032
  2.034   2.038   2.051   2.060   2.061   2.063   2.069   2.078
  2.084   2.090   2.091   2.093   2.096   2.099   2.103   2.105
  2.106   2.112   2.118   2.120   2.124   2.126   2.135   2.139
  2.140   2.142   2.144   2.153   2.157   2.159   2.163   2.166
  2.172   2.175   2.182   2.182   2.185   2.187   2.189   2.198
  2.199   2.202   2.202   2.204   2.213   2.218   2.219   2.224
  2.225   2.228   2.234   2.238   2.241   2.246   2.250   2.254
  2.259   2.260   2.262   2.269   2.271   2.274   2.275   2.284
  2.286   2.287   2.296   2.296   2.299   2.300   2.306   2.309
  2.309   2.316   2.326   2.327   2.332   2.334   2.342   2.345
  2.345   2.353   2.355   2.357   2.362   2.364   2.365   2.369
  2.376   2.377   2.382   2.387   2.389   2.391   2.395   2.397
  2.403   2.408   2.408   2.410   2.414   2.419   2.422   2.423
  2.428   2.432   2.435   2.437   2.439   2.442   2.447   2.453
  2.454   2.461   2.463   2.465   2.470   2.473   2.477   2.485
  2.487   2.489   2.493   2.494   2.498   2.502   2.504   2.512
  2.515   2.518   2.525   2.530   2.534   2.538   2.544   2.546
  2.549   2.554   2.555   2.556   2.562   2.563   2.567   2.570
  2.573   2.587   2.596   2.599   2.601   2.602   2.606   2.609
  2.613   2.619   2.620   2.626   2.632   2.643   2.644   2.649
  2.652   2.660   2.664   2.667   2.670   2.671   2.675   2.678
  2.681   2.684   2.687   2.690   2.697   2.701   2.702   2.705
  2.710   2.710   2.718   2.732   2.736   2.742   2.744   2.746
  2.749   2.751   2.761   2.772   2.781   2.784   2.794   2.801
  2.810   2.815   2.816   2.819   2.826   2.832   2.834   2.839
  2.845   2.850   2.854   2.864   2.869   2.874   2.877   2.882
  2.885   2.896   2.897   2.903   2.906   2.907   2.909   2.911
  2.920   2.930   2.931   2.934   2.937   2.938   2.943   2.949
  2.956   2.961   2.983   2.984   2.990   3.019   3.026   3.038
  3.042   3.053   3.057   3.068   3.077   3.086   3.099   3.114
  3.155   3.187   3.188   3.194   3.200   3.215   3.241   3.243
  3.245   3.247   3.257   3.262   3.277   3.281   3.290   3.290
  3.300   3.303   3.309   3.315   3.332   3.333   3.333   3.341
  3.348   3.361   3.374   3.374   3.385   3.399   3.424   3.427
  3.442   3.466   3.468   3.481   3.486   3.500   3.528   3.532
  3.564   3.575   3.576   3.581   3.589   3.591   3.593   3.606
  3.637   3.651   3.731   3.755   3.858   3.865   3.926   3.928
  3.943   3.957   3.960   3.966   3.978   3.987   3.994   4.000
  4.022   4.080   4.089   4.093   4.095   4.101   4.112   4.126
  4.129   4.143   4.153   4.158   4.164   4.178   4.198   4.202
  4.205   4.222   4.234   4.238   4.257   4.261   4.265   4.273
  4.283   4.311   4.328   4.354   4.377   4.391   4.393   4.407
  4.439   4.443   4.456   4.459   4.466   4.481   4.496   4.505
  4.516   4.532   4.547   4.551   4.602   4.620   4.662   4.666
  4.691   4.705   4.723   4.730   4.745   4.747   4.799   4.822
 --------------------------------------------------------------
 
          Ground-State Mulliken Net Atomic Charges

     Atom                 Charge (a.u.)
  ----------------------------------------
      1 C                     0.277763
      2 C                    -0.119681
      3 N                    -0.488394
      4 C                    -0.077900
      5 C                     0.090004
      6 C                     0.022438
      7 C                     0.050365
      8 C                     0.050029
      9 C                     0.198300
     10 N                    -0.514137
     11 N                    -0.520576
     12 C                     0.169723
     13 C                     0.270426
     14 S                     0.618504
     15 N                    -0.541046
     16 C                    -0.204752
     17 S                     0.334265
     18 C                    -0.081924
     19 C                    -0.224004
     20 S                     0.251591
     21 C                     0.134606
     22 C                     0.107228
     23 C                    -0.302407
     24 C                    -0.043276
     25 N                    -0.463164
     26 S                     0.252962
     27 C                     0.122823
     28 C                    -0.293066
     29 C                    -0.230483
     30 H                     0.082788
     31 H                     0.105784
     32 H                     0.114960
     33 H                     0.109476
     34 H                     0.119056
     35 H                     0.130284
     36 H                     0.108846
     37 H                     0.131607
     38 H                     0.115249
     39 C                    -0.186445
     40 H                     0.125094
     41 H                     0.099611
     42 H                     0.095278
     43 C                    -0.175459
     44 H                     0.100483
     45 C                    -0.174713
     46 H                     0.105345
     47 H                     0.085937
     48 H                     0.084814
     49 C                    -0.176943
     50 H                     0.087094
     51 C                    -0.313021
     52 H                     0.091160
     53 H                     0.095587
     54 H                     0.100332
     55 H                     0.101810
     56 C                     0.261684
     57 C                    -0.117943
     58 N                    -0.473558
     59 C                    -0.082290
     60 C                     0.079349
     61 C                     0.032482
     62 C                     0.038473
     63 C                     0.053907
     64 C                     0.250438
     65 N                    -0.512351
     66 N                    -0.567166
     67 C                     0.181913
     68 C                     0.327749
     69 S                     0.591989
     70 N                    -0.559434
     71 C                    -0.233542
     72 S                     0.356855
     73 C                    -0.107216
     74 C                    -0.221422
     75 S                     0.271576
     76 C                     0.121448
     77 C                     0.049974
     78 C                    -0.319196
     79 C                    -0.048143
     80 N                    -0.439712
     81 S                     0.274972
     82 C                     0.125643
     83 C                    -0.313994
     84 C                    -0.229923
     85 H                     0.086939
     86 H                     0.102277
     87 H                     0.118765
     88 H                     0.115934
     89 H                     0.135289
     90 H                     0.121362
     91 H                     0.120953
     92 H                     0.135689
     93 H                     0.084287
     94 C                    -0.187626
     95 H                     0.133263
     96 H                     0.090033
     97 H                     0.124015
     98 C                    -0.176706
     99 H                     0.087545
    100 C                    -0.180587
    101 H                     0.099699
    102 H                     0.095359
    103 H                     0.091593
    104 C                    -0.177106
    105 H                     0.088986
    106 C                    -0.321046
    107 H                     0.094153
    108 H                     0.105173
    109 H                     0.103062
    110 H                     0.105904
  ----------------------------------------
  Sum of atomic charges =     0.000000

 -----------------------------------------------------------------
                    Cartesian Multipole Moments
 -----------------------------------------------------------------
    Charge (ESU x 10^10)
                 0.0000
    Dipole Moment (Debye)
         X       2.6354      Y       1.2178      Z      -2.2228
       Tot       3.6564
    Quadrupole Moments (Debye-Ang)
        XX    -359.0841     XY       0.7074     YY    -432.9108
        XZ      10.3708     YZ      -5.2129     ZZ    -440.7664
    Octopole Moments (Debye-Ang^2)
       XXX     979.0679    XXY     -94.0324    XYY     123.9231
       YYY      39.6888    XXZ    -287.1667    XYZ     -97.3187
       YYZ     -31.4826    XZZ       8.3963    YZZ     -16.2023
       ZZZ      -0.9857
    Hexadecapole Moments (Debye-Ang^3)
      XXXX -141119.2914   XXXY     513.6130   XXYY  -29509.2102
      XYYY    -190.3187   YYYY  -14934.4663   XXXZ    1279.3143
      XXYZ    -696.2095   XYYZ     -54.0666   YYYZ     -94.3046
      XXZZ  -29820.9442   XYZZ      -0.9112   YYZZ   -3181.7060
      XZZZ     112.3909   YZZZ     109.2416   ZZZZ   -5116.2780
 -----------------------------------------------------------------
Archival summary:
1\1\mn426\SP\ProcedureUnspecified\6-31G**\8105042\afmv_a\SatOct614:29:412018SatOct614:29:412018\0\\#,ProcedureUnspecified,6-31G**,\\0,1\S\C,1,1.71944\C,2,1.36809,1,112.481\C,3,1.39638,2,110.746,1,2.65878,0\C,4,1.3873,3,117.363,2,-5.90775,0\C,4,1.41533,3,109.075,2,-179.768,0\H,6,1.0838,4,127.585,3,-179.382,0\C,6,1.37999,4,110.723,3,-5.25365,0\H,8,1.08171,6,131.872,4,-177.902,0\C,5,1.44955,4,124.666,3,-160.802,0\N,10,1.30024,5,118.866,4,-1.53386,0\C,11,1.44227,10,106.485,5,176.746,0\H,12,1.08219,11,119.388,10,177.845,0\C,12,1.32278,11,116.825,10,1.82042,0\H,14,1.08202,12,129.524,11,176.732,0\C,2,1.47218,1,127.13,3,-171.164,0\N,16,1.33027,2,118.208,1,140.251,0\C,17,1.34664,16,121.905,2,174.547,0\H,18,1.08899,17,118.214,16,-177.898,0\C,18,1.40148,17,124.565,16,3.16463,0\C,16,1.40811,2,123.577,1,-37.6695,0\C,21,1.36505,16,120.711,2,-178.097,0\N,22,1.34215,21,115.587,16,179.214,0\N,21,1.37367,16,123.3,2,-6.66514,0\C,20,1.48484,18,120.783,17,177.854,0\C,25,1.40433,20,121.351,18,37.3194,0\H,26,1.08568,25,120.805,20,8.298,0\C,26,1.39619,25,118.877,20,-176.88,0\H,28,1.08574,26,121.041,25,-179.685,0\C,28,1.40324,26,123.936,25,1.69791,0\N,30,1.35615,28,116.191,26,1.4921,0\C,31,1.35709,30,122.33,28,-6.302,0\H,32,1.08878,31,113.904,30,169.53,0\C,30,1.51917,28,123.173,26,175.88,0\H,34,1.09679,30,103.858,28,174.236,0\H,34,1.09732,30,111.373,28,-68.0079,0\C,34,1.54615,30,112.181,28,56.8693,0\H,37,1.09716,34,110.572,30,165.912,0\H,37,1.09722,34,110.508,30,-76.3307,0\C,37,1.53779,34,111.632,30,41.2752,0\H,40,1.09683,37,108.969,34,55.2511,0\H,40,1.09749,37,110.993,34,-61.1916,0\C,40,1.52119,37,114.768,34,174.72,0\H,43,1.09646,40,112.827,37,-52.0085,0\H,43,1.09747,40,109.023,37,-171.094,0\C,43,1.52686,40,119.46,37,68.9044,0\H,46,1.09671,43,111.515,40,-60.3252,0\H,46,1.09714,43,109.552,40,-176.294,0\C,46,1.50416,43,113.049,40,64.5415,0\H,49,1.09735,46,111.821,43,-52.5227,0\H,49,1.09737,46,108.699,43,70.3426,0\H,49,1.09753,46,112.431,43,-171.306,0\S,23,1.58874,22,103.011,21,-0.0699394,0\S,3,1.71166,2,128.24,1,176.589,0\S,10,1.71675,5,121.69,4,170.815,0\H,53,2.84596,23,103.148,22,-124.165,0\C,56,1.09628,53,121.134,23,-111.305,0\H,57,1.09699,56,106.539,53,17.5391,0\H,57,1.09722,56,104.377,53,131.859,0\C,57,1.51747,56,108.962,53,-103.882,0\H,60,1.09616,57,112.465,56,-80.9689,0\H,60,1.09715,57,102.14,56,167.129,0\C,60,1.55448,57,118.054,56,49.3972,0\H,63,1.09695,60,108.017,57,47.5668,0\H,63,1.0971,60,116.017,57,161.859,0\C,63,1.54297,60,108.491,57,-71.1291,0\H,66,1.09612,63,110.213,60,-56.2711,0\H,66,1.09655,63,112.905,60,62.4306,0\C,66,1.57685,63,114.378,60,-175.916,0\H,69,1.0962,66,111.446,63,-67.9835,0\H,69,1.09751,66,109.628,63,50.4767,0\C,69,1.61862,66,112.477,63,174.016,0\H,72,1.09694,69,117.434,66,74.2954,0\H,72,1.09768,69,99.0755,66,-45.1213,0\C,72,1.48913,69,111.443,66,-156.739,0\C,75,1.36967,72,124.643,69,110.363,0\H,76,1.08572,75,117.167,72,3.02743,0\N,75,1.37078,72,112.653,69,-74.6165,0\C,78,1.33064,75,115.936,72,178.061,0\H,79,1.08874,78,109.601,75,-178.151,0\C,76,1.38866,75,121.469,72,-177.343,0\H,81,1.08608,76,121.461,75,173.009,0\C,79,1.42022,78,126.624,75,3.19901,0\C,83,1.50067,79,124.627,78,-172.195,0\C,84,1.38807,83,126.476,79,-33.4653,0\N,85,1.33616,84,127.97,83,-3.88237,0\C,84,1.40644,83,116.692,79,141.046,0\H,87,1.08969,84,121.353,83,-7.73333,0\N,87,1.32881,84,122.648,83,-172.876,0\C,89,1.32421,87,121.847,84,-10.0636,0\C,85,1.40842,84,119.442,83,177.538,0\N,91,1.33135,85,112.153,84,175.155,0\C,90,1.42982,89,114.497,87,177.049,0\C,93,1.40133,90,127.188,89,20.2985,0\C,94,1.40652,93,114.47,90,160.646,0\C,95,1.33929,94,114.333,93,12.321,0\C,95,1.42859,94,113.941,93,-168.933,0\H,97,1.08328,95,129.101,94,-176.929,0\C,97,1.3536,95,111.87,94,0.490423,0\H,99,1.08184,97,131.118,95,-176.183,0\C,96,1.43369,95,123.464,94,171.686,0\N,101,1.34601,96,116.227,95,-177.928,0\C,102,1.39275,101,113.916,96,-172.526,0\H,103,1.08149,102,122.226,101,-175.447,0\C,103,1.35899,102,112.324,101,12.2196,0\H,105,1.08128,103,125.243,102,177.106,0\S,92,1.60343,91,108.721,85,3.42503,0\S,94,1.71473,93,133.474,90,-4.66729,0\S,105,1.73695,103,111.625,102,-9.91567,0\S,96,1.76355,95,110.64,94,-9.2181,0\\\@

 Total job time:  102.86s(wall), 1122.23s(cpu) 
 Sat Oct  6 14:29:41 2018

        *************************************************************
        *                                                           *
        *  Thank you very much for using Q-Chem.  Have a nice day.  *
        *                                                           *
        *************************************************************


