
Running Job 1 of 1 ./10/17.qcin
qchem ./10/17.qcin_29041.0 /tmpu/cab_g/afmv_a/scratch_qchem/qchem29041/ 1
/tmpu/appuserlic/qchem4.4/serial-multicore/exe/qcprog.exe_s ./10/17.qcin_29041.0 /tmpu/cab_g/afmv_a/scratch_qchem/qchem29041/
Check license passed

                  Welcome to Q-Chem
     A Quantum Leap Into The Future Of Chemistry


 Q-Chem 4.4, Q-Chem, Inc., Pleasanton, CA (2016)

 Y. Shao,  Z. Gan,  E. Epifanovsky,  A. T. B. Gilbert,  M. Wormit,  
 J. Kussmann,  A. W. Lange,  A. Behn,  J. Deng,  X. Feng,  D. Ghosh,  
 M. Goldey,  P. R. Horn,  L. D. Jacobson,  I. Kaliman,  F. Rob,  
 R. Z. Khaliullin,  T. Kus,  A. Landau,  J. Liu,  E. I. Proynov,  Y. M. Rhee,  
 R. M. Richard,  M. A. Rohrdanz,  R. P. Steele,  E. J. Sundstrom,  
 H. L. Woodcock III,  P. M. Zimmerman,  D. Zuev,  B. Albrecht,  E. Alguire,  
 B. Austin,  S. A. Baeppler,  G. J. O. Beran,  Y. A. Bernard,  E. Berquist,  
 K. Brandhorst,  K. B. Bravaya,  S. T. Brown,  D. Casanova,  C.-M. Chang,  
 Y. Chen,  S. H. Chien,  K. D. Closser,  M. P. Coons,  D. L. Crittenden,  
 S. Dasgupta,  M. Diedenhofen,  R. A. DiStasio Jr.,  H. Do,  A. D. Dutoi,  
 R. G. Edgar,  P.-T. Fang,  S. Fatehi,  Q. Feng,  L. Fusti-Molnar,  
 A. Ghysels,  A. Golubeva-Zadorozhnaya,  J. Gomes,  A. Gunina,  
 M. W. D. Hanson-Heine,  P. H. P. Harbach,  A. W. Hauser,  J. E. Herr,  
 E. G. Hohenstein,  Z. C. Holden,  K. Hui,  T.-C. Jagau,  H. Ji,  B. Kaduk,  
 K. Khistyaev,  Jaehoon Kim,  Jihan Kim,  R. A. King,  P. Klunzinger,  
 K. Koh,  D. Kosenkov,  T. Kowalczyk,  C. M. Krauter,  A. Kunitsa,  
 K. U. Lao,  A. Laurent,  K. V. Lawler,  J. Lee,  D. Lefrancois,  S. Lehtola,  
 S. V. Levchenko,  C. Y. Lin,  Y.-S. Lin,  F. Liu,  E. Livshits,  
 R. C. Lochan,  A. Luenser,  P. Manohar,  S. F. Manzer,  S.-P. Mao,  Y. Mao,  
 N. Mardirossian,  A. V. Marenich,  L. A. Martinez-Martinez,  S. A. Maurer,  
 N. J. Mayhall,  J.-M. Mewes,  A. F. Morrison,  K. Nanda,  T. S. Nguyen-Beck,  
 C. M. Oana,  R. Olivares-Amaya,  D. P. O'Neill,  J. A. Parkhill,  
 T. M. Perrine,  R. Peverati,  P. A. Pieniazek,  F. Plasser,  A. Prociuk,  
 D. R. Rehn,  E. Rosta,  N. J. Russ,  N. Sergueev,  S. M. Sharada,  
 S. Sharma,  D. W. Small,  A. Sodt,  T. Stauch,  T. Stein,  D. Stuck,  
 Y.-C. Su,  A. J. W. Thom,  T. Tsuchimochi,  L. Vogt,  O. Vydrov,  T. Wang,  
 M. A. Watson,  J. Wenzel,  A. White,  C. F. Williams,  V. Vanovschi,  
 K. Yao,  S. Yeganeh,  S. R. Yost,  Z.-Q. You,  I. Y. Zhang,  X. Zhang,  
 Y. Zhao,  B. R. Brooks,  G. K. L. Chan,  D. M. Chipman,  C. J. Cramer,  
 W. A. Goddard III,  M. S. Gordon,  W. J. Hehre,  A. Klamt,  
 H. F. Schaefer III,  M. W. Schmidt,  C. D. Sherrill,  D. G. Truhlar,  
 A. Warshel,  X. Xu,  A. Aspuru-Guzik,  R. Baer,  A. T. Bell,  N. A. Besley,  
 J.-D. Chai,  A. Dreuw,  B. D. Dunietz,  T. R. Furlani,  S. R. Gwaltney,  
 C.-P. Hsu,  Y. Jung,  J. Kong,  D. S. Lambrecht,  W. Liang,  C. Ochsenfeld,  
 V. A. Rassolov,  L. V. Slipchenko,  J. E. Subotnik,  T. Van Voorhis,  
 J. M. Herbert,  A. I. Krylov,  P. M. W. Gill,  M. Head-Gordon

 Contributors to earlier versions of Q-Chem not listed above: 
 R. D. Adamson,  J. Baker,  E. F. C. Byrd,  A. K. Chakraborty,  C.-L. Cheng,  
 H. Dachsel,  R. J. Doerksen,  G. Hawkins,  A. Heyden,  S. Hirata,  
 G. Kedziora,  F. J. Keil,  C. Kelley,  P. P. Korambath,  W. Kurlancheek,  
 A. M. Lee,  M. S. Lee,  D. Liotard,  I. Lotan,  P. E. Maslen,  N. Nair,  
 D. Neuhauser,  R. Olson,  B. Peters,  J. Ritchie,  N. E. Schultz,  
 N. Shenvi,  A. C. Simmonett,  K. S. Thanthiriwatte,  Q. Wu,  W. Zhang

 Please cite Q-Chem as follows:
 Y. Shao et al., Mol. Phys. 113, 184-215 (2015)
 DOI: 10.1080/00268976.2014.952696

 Q-Chem 4.4.2 for Intel X86 Linux

 Parts of Q-Chem use Armadillo 5.200.1 (Boston Tea Smuggler).
 http://arma.sourceforge.net/

 Q-Chem begins on Sat Oct  6 14:35:51 2018  

Host: 
0

     Scratch files written to /tmpu/cab_g/afmv_a/scratch_qchem/qchem29041//
 Dec716 11556_ 22328  22283 4050   
Processing $rem in /tmpu/appuserlic/qchem4.4/serial-multicore/config/preferences.
 MEM_TOTAL  2000 
FILE_GEOM_ORG=        593

Checking the input file for inconsistencies... 	...done.

--------------------------------------------------------------
User input:
--------------------------------------------------------------
$comment
SP
$end

$rem
MEM_STATIC 5000
MEM_TOTAL 20000
JOBTYPE SP
EXCHANGE B3LYP
BASIS 6-31g(d,p)
$end

$molecule
0 1
C           5.260000    -21.881000     -3.850000
C           6.227000    -22.846000     -4.042000
N           5.564000    -20.671000     -3.291000
C           7.577000    -22.568000     -3.865000
C           6.863000    -20.408000     -3.065000
C           7.977000    -21.223000     -3.427000
C           9.434000    -20.822000     -3.166000
C          10.400000    -21.603000     -2.569000
C           9.842000    -19.518000     -3.467000
N          11.710000    -21.243000     -2.455000
N           9.046000    -18.572000     -3.880000
C          11.176000    -19.165000     -3.378000
C          12.062000    -20.072000     -2.860000
S          10.069000    -17.296000     -4.160000
N          11.494000    -17.922000     -3.704000
C          13.563000    -19.938000     -2.720000
S          14.470000    -20.597000     -1.394000
C          14.379000    -19.114000     -3.490000
C          15.973000    -19.818000     -1.987000
S          14.090000    -18.268000     -5.025000
C          15.708000    -19.142000     -3.138000
C          17.307000    -20.134000     -1.610000
C          15.791000    -17.926000     -5.103000
C          16.575000    -18.436000     -4.058000
N          18.116000    -19.173000     -1.564000
S          17.730000    -21.533000     -0.677000
C          19.233000    -19.432000     -0.863000
C          19.248000    -20.707000     -0.357000
C           3.717000    -22.283000     -3.984000
H           5.972000    -23.823000     -4.443000
H           8.310000    -23.313000     -4.161000
H           7.004000    -19.458000     -2.553000
H          10.089000    -22.596000     -2.249000
H          16.131000    -17.257000     -5.883000
H          17.638000    -18.263000     -3.932000
H          19.948000    -18.643000     -0.672000
H          20.007000    -21.149000      0.275000
H           3.597000    -23.353000     -3.771000
C           3.171000    -21.887000     -5.332000
H           3.238000    -21.653000     -3.225000
H           3.656000    -22.507000     -6.096000
H           3.343000    -20.827000     -5.556000
C           1.589000    -22.041000     -5.264000
H           1.238000    -23.006000     -4.879000
C           0.931000    -21.809000     -6.636000
H           1.241000    -21.276000     -4.560000
H           1.469000    -22.422000     -7.370000
H           1.054000    -20.755000     -6.915000
C          -0.628000    -21.942000     -6.664000
H          -0.874000    -22.966000     -6.360000
C          -1.236000    -21.503000     -8.026000
H          -1.115000    -21.376000     -5.860000
H          -0.802000    -22.080000     -8.852000
H          -1.009000    -20.441000     -8.186000
H          -2.327000    -21.610000     -8.060000
C           2.867000    -19.215000     -0.444000
C           2.159000    -19.356000      0.762000
N           2.405000    -19.675000     -1.584000
C           0.981000    -20.107000      0.868000
C           1.178000    -20.327000     -1.581000
C           0.502000    -20.682000     -0.380000
C          -0.635000    -21.610000     -0.536000
C          -1.412000    -21.706000     -1.767000
C          -1.100000    -22.488000      0.496000
N          -2.418000    -22.502000     -2.020000
N          -0.535000    -22.588000      1.704000
C          -2.260000    -23.208000      0.296000
C          -2.873000    -23.207000     -1.018000
S          -1.419000    -23.639000      2.547000
N          -2.598000    -23.895000      1.386000
C          -4.037000    -24.034000     -1.367000
S          -5.344000    -24.561000     -0.322000
C          -4.316000    -24.585000     -2.622000
C          -6.336000    -25.150000     -1.602000
S          -3.431000    -24.434000     -4.187000
C          -5.568000    -25.219000     -2.683000
C          -7.732000    -25.568000     -1.578000
C          -4.826000    -25.276000     -4.973000
C          -5.792000    -25.628000     -4.022000
N          -8.284000    -25.799000     -0.398000
S          -8.893000    -25.572000     -2.853000
C          -9.611000    -26.166000     -0.431000
C         -10.174000    -26.040000     -1.682000
C           4.320000    -18.676000     -0.407000
H           2.482000    -18.723000      1.583000
H           0.409000    -20.222000      1.784000
H           0.930000    -20.920000     -2.460000
H          -1.101000    -21.088000     -2.608000
H          -4.772000    -25.458000     -6.039000
H          -6.658000    -26.188000     -4.356000
H         -10.149000    -26.321000      0.495000
H         -11.202000    -26.137000     -2.005000
H           4.786000    -18.952000      0.547000
C           4.397000    -17.196000     -0.620000
H           4.873000    -19.190000     -1.202000
H           3.543000    -16.788000     -0.064000
H           4.032000    -17.058000     -1.645000
C           5.735000    -16.596000     -0.310000
H           5.872000    -16.534000      0.777000
C           5.990000    -15.195000     -0.923000
H           6.477000    -17.328000     -0.652000
H           5.444000    -14.391000     -0.414000
H           5.567000    -15.155000     -1.934000
C           7.442000    -14.778000     -0.897000
H           8.030000    -15.603000     -1.319000
C           7.985000    -14.436000      0.531000
H           7.674000    -13.880000     -1.483000
H           7.547000    -13.532000      0.971000
H           9.063000    -14.264000      0.429000
H           7.741000    -15.284000      1.184000
$end

--------------------------------------------------------------
 ----------------------------------------------------------------
             Standard Nuclear Orientation (Angstroms)
    I     Atom           X                Y                Z
 ----------------------------------------------------------------
    1      C      -0.6907549180     1.7929296225     0.2118229787
    2      C      -1.3917323433     2.3811025241     1.2442285613
    3      N      -1.2696106348     0.8551086170    -0.5971361184
    4      C      -2.7621894734     2.2013004417     1.3878651364
    5      C      -2.5854350349     0.6319132282    -0.4345447084
    6      C      -3.4714338666     1.3333699915     0.4367930443
    7      C      -4.9735354672     1.0377576841     0.5266548560
    8      C      -5.6948682551     0.8253510875     1.6816823219
    9      C      -5.7033389783     0.8726917141    -0.6555553879
   10      N      -7.0490481087     0.6720263526     1.7188905157
   11      N      -5.1819900232     0.8650622196    -1.8502260780
   12      C      -7.0797791818     0.7466700999    -0.6153444579
   13      C      -7.6946941340     0.6482103783     0.6045548350
   14      S      -6.4993667695     0.7294110941    -2.8498371427
   15      N      -7.7080290247     0.6212069019    -1.7737960628
   16      C      -9.1764995144     0.5643683420     0.9008322850
   17      S      -9.8484468313    -0.3740693818     2.1981477601
   18      C     -10.1959794579     1.0347509712     0.0779514752
   19      C     -11.5160739715    -0.0087257195     1.6476545908
   20      S     -10.1753571388     2.1391439665    -1.3132181161
   21      C     -11.4642616954     0.8013032441     0.5553311194
   22      C     -12.7165176454    -0.1611192337     2.3941478612
   23      C     -11.9094558883     2.1956475459    -1.2347460015
   24      C     -12.5083220489     1.4570748546    -0.2038964968
   25      N     -13.7379703834    -0.4998435223     1.7445186129
   26      S     -12.7475542737    -0.4972671293     4.0949301283
   27      C     -14.7325170562    -0.9879696931     2.5052950300
   28      C     -14.4129527207    -0.9973888007     3.8393399752
   29      C       0.8987916752     1.9653126741     0.1483035999
   30      H      -0.9135393764     3.0908802546     1.9134834153
   31      H      -3.2948596881     2.7920114584     2.1276305973
   32      H      -2.9430919473    -0.1785873155    -1.0667593885
   33      H      -5.1359917898     0.8665626272     2.6150250808
   34      H     -12.4298633735     2.7012421078    -2.0379341415
   35      H     -13.5763886914     1.3445120525    -0.0544399388
   36      H     -15.6155312629    -1.4054265851     2.0402760474
   37      H     -15.0174817709    -1.3778468397     4.6521531813
   38      H       1.2886967155     2.1459434781     1.1582618030
   39      C       1.2863211594     3.0419892086    -0.8328307125
   40      H       1.2287836294     1.0014028109    -0.2571653704
   41      H       0.9478697749     4.0073188965    -0.4367117228
   42      H       0.8482420400     2.8784878749    -1.8251582789
   43      C       2.8580022867     2.9344176364    -1.0548910444
   44      H       3.4506296374     2.9025169733    -0.1327055040
   45      C       3.3941224830     4.0855708289    -1.9247148556
   46      H       3.0257901111     1.9812034896    -1.5698425336
   47      H       3.0035641397     5.0238086189    -1.5110204879
   48      H       3.0032495035     3.9723125254    -2.9436735744
   49      C       4.9353062915     4.0611855802    -2.1951068451
   50      H       5.4385134145     4.1325827513    -1.2239255874
   51      C       5.3716700664     5.1314442321    -3.2350886114
   52      H       5.2904219374     3.0780138385    -2.5285842871
   53      H       5.0699095083     6.1357092150    -2.9126705447
   54      H       4.8818571210     4.9111497736    -4.1924425846
   55      H       6.4532292697     5.1328103875    -3.4170606514
   56      C       1.0659633802    -2.4897994468    -1.5222512814
   57      C       1.8240096088    -3.6056427828    -1.1274848125
   58      N       1.5923795130    -1.2922323277    -1.6378499414
   59      C       3.1549092078    -3.5074739896    -0.7008817820
   60      C       2.9427751926    -1.1370780100    -1.3497516142
   61      C       3.7231188787    -2.1689720640    -0.7567420081
   62      C       5.0503518412    -1.7605376813    -0.2568189958
   63      C       5.7879263615    -0.6296422318    -0.8094176831
   64      C       5.7517753096    -2.4330129899     0.7957564540
   65      N       6.9523940089    -0.1703526825    -0.4316224900
   66      N       5.2675948255    -3.4851226004     1.4644294880
   67      C       7.0479696994    -2.0602040170     1.0871214716
   68      C       7.6000146576    -0.8767559260     0.4569921357
   69      S       6.4118341760    -3.9457473331     2.5013707420
   70      N       7.5806050808    -2.8475914969     2.0201989105
   71      C       8.9221446415    -0.3269341773     0.7890980681
   72      S      10.3512649122    -1.1914308745     1.3260000260
   73      C       9.2905775173     1.0220454781     0.7578233927
   74      C      11.4184706577     0.1494988993     1.1460993907
   75      S       8.3475296611     2.4794646239     0.2660498935
   76      C      10.6586790706     1.2286655666     1.0002842740
   77      C      12.8746684244     0.1899430953     1.1904652697
   78      C       9.8833426487     3.4266914119     0.3957606463
   79      C      10.9358111311     2.6079943648     0.8241369280
   80      N      13.5033894993    -0.8593582631     1.6945897278
   81      S      13.9595515937     1.3043012959     0.4456187689
   82      C      14.8782967256    -0.7799406018     1.6891166959
   83      C      15.3527094421     0.3029131348     0.9818640114
   84      C      -0.4737052763    -2.6270907078    -1.6391723571
   85      H       1.3789831480    -4.5776672947    -1.3176920609
   86      H       3.7657930486    -4.3543051619    -0.4022802102
   87      H       3.3034190116    -0.1207985552    -1.1984039824
   88      H       5.3064152083    -0.0507094879    -1.5961259438
   89      H       9.8432629133     4.4876124911     0.1830728975
   90      H      11.9033389131     3.0662665084     0.9943974149
   91      H      15.4665719386    -1.6194840833     2.0355903839
   92      H      16.3617837155     0.5735282249     0.7006904285
   93      H      -0.8260556305    -3.3855809866    -0.9292500200
   94      C      -0.9243480760    -2.9584900445    -3.0279824761
   95      H      -0.9053988409    -1.6669014371    -1.3330559893
   96      H      -0.1823290466    -3.6770509041    -3.3994579814
   97      H      -0.6375126825    -2.0777311671    -3.6152500956
   98      C      -2.3594283200    -3.3790666968    -3.1280023387
   99      H      -2.4735925010    -4.4041302090    -2.7533113518
  100      C      -2.9751010613    -3.2985430325    -4.5485860269
  101      H      -2.9054893342    -2.7496839418    -2.4145272400
  102      H      -2.6315008396    -4.0969205490    -5.2180225279
  103      H      -2.6072292865    -2.3990844632    -5.0568129834
  104      C      -4.4836882596    -3.3816085036    -4.5601529064
  105      H      -4.8599811615    -2.6539386012    -3.8298425853
  106      C      -5.0500571459    -4.7994002013    -4.2136128846
  107      H      -4.9506868957    -3.1460223927    -5.5245363665
  108      H      -4.8380999695    -5.5628706002    -4.9717996066
  109      H      -6.1395037539    -4.6985269298    -4.1428833205
  110      H      -4.5818368114    -5.1161351615    -3.2726040200
 ----------------------------------------------------------------
 Molecular Point Group                 C1    NOp =  1
 Largest Abelian Subgroup              C1    NOp =  1
 Nuclear Repulsion Energy = 10792.8852543739 hartrees
 There are      270 alpha and      270 beta electrons
 Requested basis set is 6-31G(d,p)
 There are 406 shells and 1262 basis functions

 Total QAlloc Memory Limit  20000 MB
 Mega-Array Size      4888 MB
 MEM_STATIC part      5000 MB
 A cutoff of  1.0D-08 yielded  13704 shell pairs
 There are    138623 function pairs
 
 -------------------------------------------------------
 OpenMP Integral Computing Module                       
 Release: version 1.0, May 2013, Q-Chem Inc. Pittsburgh 
 -------------------------------------------------------
 Integral Job Info:
 Integral job number is                      11
 Integral operator is                         1
 short-range coefficients                     0
 long-range coefficients              100000000
 Omega coefficients                           0
 if combine SR and LR in K                    0
 Integral screening is                        0
 Integral computing path is                   2
 max size of driver memory is            800000
 size of driver memory is                593474
 size of scratch memory is             15166112
 max col of scratch BK array               1296
 max len of scratch array in speh3          155
 max len of scratch index in speh4           18
 max int batch size is                      520
 min int batch size is                       52
 fixed nKL is                                52
 max L of basis functions is                  2
 order of int derivative is                   0
 number of shells is                        406
 number of basis is                        1262
 number of cartesian basis is              1262
 number of contracted shell pairs         13704
 number of primitive shell pairs          43499
 maxK2 (contraction) of shell pair           36
 max number of K2 of shell pair               1
 max number of CS2 of shell pair           1317
 max number of PS2 of shell pair           7788
 mem total for path MDJ                  280792
 -------------------------------------------------------
 Smallest overlap matrix eigenvalue = 3.94E-04

 Scale SEOQF with 1.000000e-02/1.000000e-02/1.000000e-02

 Standard Electronic Orientation quadrupole field applied
 Nucleus-field energy     =     0.0000001352 hartrees
 Guess from superposition of atomic densities
 Warning:  Energy on first SCF cycle will be non-variational
 A restricted hybrid HF-DFT SCF calculation will be
 performed using Pulay DIIS extrapolation
 Exchange:     0.2000 Hartree-Fock + 0.0800 Slater + 0.7200 B88
 Correlation:  0.1900 VWN1RPA + 0.8100 LYP
 Using SG-1 standard quadrature grid
 SCF converges when DIIS error is below 1.0E-05
 using 16 threads for integral computing 
 -------------------------------------------------------
 OpenMP BLAS3 based DFT computing Module                
 Release: version 1.0, May 2013, Q-Chem Inc. Pittsburgh 
 -------------------------------------------------------
 ---------------------------------------
  Cycle       Energy         DIIS Error
 ---------------------------------------
    1   -5680.5357004829      2.17E-02
    2   -5662.4624144583      2.17E-03
    3   -5660.9726928508      3.38E-03
    4   -5663.3471077685      8.14E-04
    5   -5663.4650498261      3.51E-04
    6   -5663.4810785774      2.16E-04
    7   -5663.4903662726      6.61E-05
    8   -5663.4911260295      2.85E-05
    9   -5663.4912760780      1.10E-05
   10   -5663.4913022517      3.15E-06 Convergence criterion met
 ---------------------------------------
 SCF time:  CPU 1023.50 s  wall 91.17 s
 SCF   energy in the final basis set = -5663.4913022517
 Total energy in the final basis set = -5663.4913022517
 
 --------------------------------------------------------------
 
                    Orbital Energies (a.u.)
 --------------------------------------------------------------
 
 Alpha MOs
 -- Occupied --
-88.991 -88.987 -88.928 -88.922 -88.920 -88.920 -88.909 -88.904
-14.393 -14.384 -14.384 -14.380 -14.351 -14.346 -14.336 -14.330
-14.330 -14.330 -10.270 -10.265 -10.255 -10.255 -10.255 -10.252
-10.251 -10.250 -10.239 -10.238 -10.237 -10.236 -10.235 -10.234
-10.233 -10.232 -10.231 -10.228 -10.228 -10.227 -10.227 -10.226
-10.226 -10.226 -10.225 -10.225 -10.225 -10.222 -10.221 -10.220
-10.217 -10.215 -10.204 -10.203 -10.198 -10.198 -10.196 -10.194
-10.182 -10.180 -10.178 -10.178 -10.177 -10.176 -10.174 -10.174
-10.174 -10.172 -10.171 -10.171  -8.046  -8.043  -7.988  -7.982
 -7.981  -7.980  -7.967  -7.965  -6.011  -6.008  -6.006  -6.004
 -6.002  -6.001  -5.952  -5.949  -5.945  -5.945  -5.945  -5.944
 -5.942  -5.941  -5.940  -5.939  -5.937  -5.936  -5.932  -5.929
 -5.928  -5.926  -5.923  -5.921  -1.055  -1.041  -0.990  -0.979
 -0.975  -0.965  -0.934  -0.932  -0.925  -0.917  -0.908  -0.902
 -0.841  -0.838  -0.836  -0.830  -0.810  -0.807  -0.806  -0.803
 -0.799  -0.797  -0.794  -0.793  -0.782  -0.781  -0.768  -0.768
 -0.752  -0.747  -0.738  -0.737  -0.721  -0.720  -0.709  -0.704
 -0.693  -0.691  -0.681  -0.676  -0.657  -0.655  -0.648  -0.647
 -0.633  -0.632  -0.625  -0.621  -0.611  -0.609  -0.601  -0.598
 -0.592  -0.589  -0.581  -0.578  -0.576  -0.573  -0.570  -0.565
 -0.557  -0.546  -0.542  -0.541  -0.524  -0.521  -0.516  -0.510
 -0.504  -0.503  -0.502  -0.501  -0.489  -0.487  -0.482  -0.477
 -0.475  -0.472  -0.468  -0.465  -0.463  -0.459  -0.454  -0.451
 -0.445  -0.444  -0.441  -0.439  -0.438  -0.431  -0.428  -0.427
 -0.426  -0.423  -0.422  -0.421  -0.419  -0.416  -0.416  -0.414
 -0.412  -0.407  -0.403  -0.401  -0.399  -0.398  -0.397  -0.396
 -0.395  -0.393  -0.392  -0.390  -0.387  -0.387  -0.381  -0.380
 -0.377  -0.374  -0.371  -0.370  -0.364  -0.361  -0.358  -0.353
 -0.352  -0.348  -0.348  -0.346  -0.343  -0.341  -0.340  -0.339
 -0.339  -0.336  -0.331  -0.327  -0.327  -0.323  -0.322  -0.320
 -0.318  -0.313  -0.311  -0.310  -0.306  -0.301  -0.300  -0.300
 -0.296  -0.295  -0.287  -0.286  -0.284  -0.281  -0.279  -0.278
 -0.274  -0.270  -0.269  -0.266  -0.256  -0.254  -0.247  -0.245
 -0.243  -0.242  -0.235  -0.229  -0.195  -0.191
 -- Virtual --
 -0.114  -0.109  -0.069  -0.065  -0.041  -0.038  -0.031  -0.021
 -0.018  -0.016  -0.015  -0.012  -0.009   0.003   0.003   0.005
  0.007   0.013   0.016   0.023   0.027   0.032   0.037   0.039
  0.044   0.051   0.057   0.064   0.067   0.076   0.080   0.087
  0.092   0.096   0.101   0.104   0.105   0.107   0.112   0.114
  0.115   0.116   0.117   0.120   0.122   0.123   0.123   0.126
  0.128   0.129   0.131   0.134   0.137   0.144   0.145   0.151
  0.156   0.158   0.158   0.160   0.161   0.163   0.165   0.166
  0.169   0.170   0.173   0.176   0.177   0.178   0.181   0.182
  0.184   0.185   0.189   0.190   0.195   0.196   0.200   0.204
  0.207   0.207   0.209   0.212   0.217   0.219   0.222   0.224
  0.227   0.228   0.232   0.235   0.236   0.238   0.239   0.241
  0.246   0.248   0.250   0.253   0.254   0.258   0.260   0.265
  0.270   0.270   0.274   0.276   0.279   0.280   0.282   0.283
  0.286   0.289   0.289   0.296   0.300   0.302   0.305   0.306
  0.308   0.313   0.314   0.318   0.319   0.322   0.326   0.328
  0.329   0.338   0.341   0.342   0.345   0.349   0.351   0.353
  0.356   0.356   0.358   0.360   0.366   0.369   0.371   0.373
  0.376   0.376   0.379   0.388   0.389   0.395   0.396   0.402
  0.406   0.408   0.412   0.418   0.423   0.430   0.431   0.436
  0.444   0.448   0.455   0.458   0.461   0.465   0.468   0.468
  0.473   0.479   0.481   0.490   0.495   0.497   0.498   0.500
  0.504   0.508   0.510   0.511   0.514   0.515   0.517   0.519
  0.521   0.524   0.525   0.527   0.528   0.531   0.532   0.535
  0.536   0.539   0.540   0.542   0.544   0.545   0.547   0.549
  0.552   0.552   0.556   0.559   0.559   0.560   0.562   0.563
  0.565   0.566   0.569   0.574   0.578   0.579   0.579   0.581
  0.582   0.586   0.587   0.590   0.591   0.593   0.595   0.595
  0.599   0.602   0.603   0.604   0.608   0.608   0.611   0.615
  0.618   0.619   0.622   0.623   0.624   0.625   0.627   0.629
  0.632   0.637   0.638   0.639   0.641   0.645   0.646   0.649
  0.650   0.656   0.659   0.660   0.662   0.663   0.666   0.669
  0.674   0.679   0.683   0.683   0.687   0.689   0.690   0.693
  0.693   0.702   0.704   0.708   0.710   0.713   0.716   0.720
  0.723   0.728   0.729   0.734   0.735   0.737   0.741   0.744
  0.747   0.750   0.754   0.759   0.761   0.761   0.767   0.770
  0.772   0.775   0.777   0.779   0.780   0.783   0.786   0.793
  0.794   0.799   0.800   0.804   0.805   0.807   0.808   0.811
  0.813   0.815   0.816   0.818   0.820   0.821   0.822   0.823
  0.825   0.828   0.829   0.830   0.833   0.834   0.837   0.838
  0.843   0.844   0.845   0.847   0.849   0.851   0.854   0.855
  0.858   0.859   0.862   0.863   0.863   0.866   0.870   0.873
  0.877   0.879   0.880   0.885   0.885   0.885   0.887   0.894
  0.897   0.899   0.902   0.902   0.906   0.910   0.911   0.913
  0.915   0.917   0.918   0.921   0.923   0.926   0.926   0.930
  0.932   0.936   0.939   0.940   0.940   0.946   0.947   0.948
  0.953   0.954   0.961   0.962   0.963   0.967   0.969   0.969
  0.971   0.975   0.977   0.979   0.982   0.984   0.986   0.989
  0.992   0.994   0.996   0.998   1.002   1.005   1.007   1.010
  1.014   1.017   1.017   1.018   1.021   1.027   1.028   1.028
  1.029   1.030   1.038   1.046   1.048   1.051   1.053   1.056
  1.057   1.061   1.065   1.068   1.072   1.073   1.075   1.079
  1.081   1.085   1.090   1.093   1.096   1.098   1.104   1.109
  1.112   1.120   1.123   1.128   1.131   1.138   1.147   1.151
  1.153   1.156   1.160   1.162   1.168   1.175   1.177   1.183
  1.187   1.190   1.193   1.198   1.199   1.213   1.218   1.222
  1.232   1.234   1.243   1.251   1.253   1.260   1.263   1.273
  1.276   1.281   1.284   1.293   1.294   1.296   1.303   1.304
  1.306   1.314   1.316   1.318   1.322   1.325   1.336   1.340
  1.342   1.351   1.357   1.359   1.363   1.365   1.368   1.370
  1.374   1.379   1.380   1.387   1.395   1.397   1.399   1.403
  1.405   1.410   1.417   1.427   1.427   1.430   1.437   1.445
  1.449   1.453   1.455   1.459   1.463   1.465   1.471   1.473
  1.480   1.482   1.483   1.495   1.501   1.506   1.510   1.515
  1.517   1.527   1.536   1.546   1.548   1.557   1.561   1.563
  1.569   1.574   1.584   1.593   1.599   1.601   1.604   1.614
  1.625   1.628   1.631   1.637   1.639   1.642   1.646   1.650
  1.656   1.660   1.669   1.669   1.674   1.677   1.680   1.683
  1.688   1.690   1.695   1.696   1.701   1.703   1.706   1.712
  1.713   1.716   1.719   1.723   1.724   1.730   1.734   1.736
  1.737   1.748   1.758   1.761   1.762   1.768   1.770   1.776
  1.787   1.794   1.794   1.801   1.808   1.810   1.820   1.824
  1.827   1.828   1.831   1.833   1.834   1.836   1.844   1.849
  1.853   1.857   1.859   1.861   1.865   1.866   1.870   1.875
  1.878   1.886   1.890   1.893   1.896   1.902   1.905   1.906
  1.908   1.911   1.912   1.922   1.924   1.925   1.928   1.930
  1.937   1.938   1.939   1.942   1.942   1.948   1.951   1.951
  1.956   1.962   1.964   1.971   1.972   1.981   1.987   1.989
  1.994   2.006   2.016   2.018   2.021   2.023   2.027   2.027
  2.029   2.036   2.052   2.053   2.053   2.060   2.061   2.072
  2.073   2.080   2.084   2.090   2.096   2.098   2.099   2.104
  2.105   2.110   2.111   2.116   2.117   2.118   2.123   2.127
  2.128   2.135   2.137   2.143   2.146   2.151   2.154   2.156
  2.160   2.163   2.166   2.169   2.176   2.177   2.183   2.185
  2.191   2.196   2.198   2.207   2.208   2.211   2.224   2.225
  2.233   2.237   2.238   2.245   2.252   2.252   2.259   2.261
  2.264   2.266   2.268   2.271   2.276   2.278   2.283   2.286
  2.289   2.293   2.296   2.303   2.307   2.314   2.316   2.317
  2.323   2.326   2.329   2.334   2.334   2.339   2.343   2.344
  2.346   2.348   2.351   2.356   2.360   2.366   2.366   2.370
  2.371   2.374   2.378   2.383   2.385   2.390   2.399   2.401
  2.403   2.403   2.410   2.410   2.415   2.416   2.426   2.427
  2.428   2.430   2.434   2.439   2.442   2.444   2.448   2.451
  2.452   2.458   2.462   2.463   2.465   2.465   2.467   2.471
  2.475   2.478   2.483   2.483   2.490   2.495   2.502   2.509
  2.511   2.519   2.521   2.524   2.533   2.536   2.538   2.540
  2.542   2.545   2.550   2.555   2.557   2.562   2.568   2.571
  2.574   2.580   2.582   2.586   2.591   2.598   2.605   2.610
  2.610   2.627   2.629   2.630   2.631   2.644   2.647   2.656
  2.659   2.662   2.669   2.673   2.674   2.676   2.681   2.687
  2.689   2.690   2.691   2.694   2.696   2.696   2.700   2.705
  2.711   2.717   2.718   2.720   2.727   2.732   2.743   2.747
  2.755   2.757   2.762   2.771   2.773   2.781   2.783   2.789
  2.803   2.806   2.810   2.815   2.819   2.829   2.832   2.835
  2.842   2.853   2.859   2.864   2.870   2.871   2.872   2.883
  2.887   2.888   2.890   2.900   2.902   2.903   2.905   2.908
  2.911   2.917   2.925   2.930   2.941   2.948   2.950   2.950
  2.953   2.966   2.974   2.983   2.986   3.009   3.019   3.030
  3.037   3.051   3.067   3.074   3.091   3.112   3.116   3.140
  3.164   3.169   3.185   3.203   3.206   3.207   3.226   3.238
  3.238   3.240   3.255   3.266   3.272   3.273   3.279   3.282
  3.300   3.307   3.310   3.325   3.328   3.332   3.334   3.337
  3.342   3.346   3.361   3.362   3.394   3.407   3.421   3.429
  3.449   3.460   3.462   3.473   3.479   3.497   3.541   3.546
  3.551   3.577   3.589   3.590   3.593   3.598   3.605   3.617
  3.620   3.624   3.702   3.716   3.851   3.853   3.915   3.927
  3.940   3.947   3.950   3.967   3.983   3.986   3.988   4.010
  4.011   4.059   4.076   4.079   4.083   4.103   4.104   4.115
  4.123   4.141   4.142   4.151   4.158   4.162   4.188   4.190
  4.201   4.209   4.230   4.242   4.262   4.267   4.269   4.278
  4.288   4.290   4.333   4.348   4.375   4.384   4.389   4.394
  4.425   4.438   4.457   4.460   4.477   4.482   4.489   4.497
  4.501   4.510   4.532   4.541   4.573   4.614   4.659   4.663
  4.681   4.687   4.708   4.714   4.777   4.780   4.783   4.788
 --------------------------------------------------------------
 
          Ground-State Mulliken Net Atomic Charges

     Atom                 Charge (a.u.)
  ----------------------------------------
      1 C                     0.250900
      2 C                    -0.107574
      3 N                    -0.467164
      4 C                    -0.088480
      5 C                     0.096635
      6 C                     0.022488
      7 C                     0.044291
      8 C                     0.044279
      9 C                     0.260811
     10 N                    -0.505048
     11 N                    -0.556091
     12 C                     0.212844
     13 C                     0.288694
     14 S                     0.590372
     15 N                    -0.535760
     16 C                    -0.224095
     17 S                     0.309527
     18 C                    -0.104438
     19 C                    -0.225744
     20 S                     0.263976
     21 C                     0.150548
     22 C                     0.036242
     23 C                    -0.311154
     24 C                    -0.043892
     25 N                    -0.395222
     26 S                     0.252678
     27 C                     0.122487
     28 C                    -0.318389
     29 C                    -0.238670
     30 H                     0.088645
     31 H                     0.101822
     32 H                     0.107636
     33 H                     0.108300
     34 H                     0.126977
     35 H                     0.121689
     36 H                     0.115788
     37 H                     0.129233
     38 H                     0.098035
     39 C                    -0.173050
     40 H                     0.148088
     41 H                     0.089363
     42 H                     0.117428
     43 C                    -0.197456
     44 H                     0.089675
     45 C                    -0.169478
     46 H                     0.107805
     47 H                     0.090143
     48 H                     0.090611
     49 C                    -0.189896
     50 H                     0.094255
     51 C                    -0.318727
     52 H                     0.097451
     53 H                     0.103118
     54 H                     0.104546
     55 H                     0.100718
     56 C                     0.270857
     57 C                    -0.123545
     58 N                    -0.474580
     59 C                    -0.044089
     60 C                     0.046001
     61 C                     0.038687
     62 C                     0.024636
     63 C                     0.050656
     64 C                     0.213774
     65 N                    -0.488325
     66 N                    -0.557509
     67 C                     0.259737
     68 C                     0.285379
     69 S                     0.601823
     70 N                    -0.584092
     71 C                    -0.223181
     72 S                     0.336328
     73 C                    -0.123785
     74 C                    -0.186338
     75 S                     0.263244
     76 C                     0.155429
     77 C                     0.048048
     78 C                    -0.298584
     79 C                    -0.099351
     80 N                    -0.431149
     81 S                     0.262602
     82 C                     0.130323
     83 C                    -0.315355
     84 C                    -0.245173
     85 H                     0.091303
     86 H                     0.118412
     87 H                     0.104704
     88 H                     0.106943
     89 H                     0.136239
     90 H                     0.107376
     91 H                     0.121215
     92 H                     0.137976
     93 H                     0.090991
     94 C                    -0.177104
     95 H                     0.151138
     96 H                     0.084991
     97 H                     0.112154
     98 C                    -0.175589
     99 H                     0.096329
    100 C                    -0.172271
    101 H                     0.095632
    102 H                     0.090125
    103 H                     0.092858
    104 C                    -0.179785
    105 H                     0.089610
    106 C                    -0.319814
    107 H                     0.088539
    108 H                     0.102529
    109 H                     0.102160
    110 H                     0.103100
  ----------------------------------------
  Sum of atomic charges =     0.000000

 -----------------------------------------------------------------
                    Cartesian Multipole Moments
 -----------------------------------------------------------------
    Charge (ESU x 10^10)
                 0.0000
    Dipole Moment (Debye)
         X       0.6257      Y       0.2874      Z       0.8465
       Tot       1.0912
    Quadrupole Moments (Debye-Ang)
        XX    -374.2306     XY      14.2665     YY    -424.7230
        XZ      -6.3520     YZ      -2.3803     ZZ    -440.5293
    Octopole Moments (Debye-Ang^2)
       XXX     334.4250    XXY      95.7502    XYY      89.0337
       YYY     -28.2043    XXZ     134.8913    XYZ      64.2594
       YYZ       9.4183    XZZ    -170.6565    YZZ     -27.5159
       ZZZ      11.3761
    Hexadecapole Moments (Debye-Ang^3)
      XXXX -154809.0524   XXXY    3732.6766   XXYY  -33270.4133
      XYYY      11.6336   YYYY  -13217.9854   XXXZ   -3075.0980
      XXYZ   -1328.2346   XYYZ     197.3049   YYYZ     -81.4814
      XXZZ  -32682.2389   XYZZ      41.2663   YYZZ   -3948.2337
      XZZZ    -302.9674   YZZZ    -186.3445   ZZZZ  -10377.8967
 -----------------------------------------------------------------
Archival summary:
1\1\mn426\SP\ProcedureUnspecified\6-31G**\8105042\afmv_a\SatOct614:37:262018SatOct614:37:262018\0\\#,ProcedureUnspecified,6-31G**,\\0,1\S\N,1,1.62186\C,2,1.3238,1,102.744\C,3,1.36966,2,124.023,1,176.47,0\N,4,1.28809,3,122.967,2,-174.549,0\C,5,1.36334,4,118.447,3,-1.16526,0\H,6,1.08866,5,119.391,4,-178.846,0\C,6,1.37823,5,124.06,4,-4.05451,0\C,3,1.38278,2,117.103,1,2.07536,0\N,9,1.3035,3,115.103,2,-0.614389,0\C,4,1.51346,3,128.163,2,8.59658,0\C,11,1.39202,4,125.635,3,24.3913,0\C,12,1.37511,11,114.387,4,-178.106,0\C,13,1.36088,12,114.507,11,8.78378,0\C,14,1.42181,13,121.156,12,-169.081,0\N,15,1.25703,14,116.335,13,-53.7968,0\C,16,1.34394,15,113.995,14,-162.424,0\H,17,1.08177,16,120.058,15,173.572,0\C,17,1.37182,16,112.371,15,-0.545894,0\H,19,1.08207,17,127.067,16,177.136,0\C,13,1.44794,12,113.962,11,-171.624,0\H,21,1.08433,13,126.225,12,-174.635,0\C,21,1.40242,13,108.423,12,1.23118,0\H,23,1.08239,21,125.883,13,-172.493,0\C,8,1.53355,6,126.261,5,-174.503,0\C,25,1.42698,8,123.311,6,-130.33,0\H,26,1.08836,25,121.113,8,1.67772,0\N,26,1.34449,25,126.862,8,-178.066,0\C,28,1.36711,26,117.175,25,-4.45748,0\C,29,1.37956,28,121.342,26,-6.7282,0\H,30,1.08644,29,121.057,28,-177.07,0\C,30,1.38964,29,121.553,28,9.72092,0\H,32,1.08625,30,118.923,29,171.46,0\C,29,1.60013,28,118.101,26,-173.545,0\H,34,1.09655,29,102.646,28,22.095,0\H,34,1.09757,29,109.518,28,141.472,0\C,34,1.50733,29,110.989,28,-93.1306,0\H,37,1.09696,34,108.313,29,-67.5436,0\H,37,1.09698,34,112.314,29,53.5756,0\C,37,1.59093,34,107.25,29,168.388,0\H,40,1.09633,37,105.994,34,-67.0701,0\H,40,1.09665,37,114.737,34,50.3662,0\C,40,1.53921,37,111.864,34,173.812,0\H,43,1.09722,40,108.876,37,67.5176,0\H,43,1.09726,40,107.605,37,-49.4822,0\C,43,1.56491,40,115.405,37,-179.948,0\H,46,1.09613,43,107.338,40,60.8556,0\H,46,1.09724,43,112.657,40,-48.6315,0\C,46,1.55481,43,112.411,40,-172.023,0\H,49,1.09676,46,112.867,43,-178.983,0\H,49,1.09707,46,110.876,43,-56.8941,0\H,49,1.09771,46,108.662,43,62.2647,0\S,15,1.73396,14,123.427,13,149.975,0\S,11,1.73643,4,123.716,3,-144.892,0\S,23,1.73679,21,116.26,13,0.420738,0\H,41,2.15255,40,141.974,37,85.3804,0\C,56,1.08894,41,147.635,40,-119.16,0\N,57,1.38948,56,117.059,41,23.7541,0\C,58,1.31326,57,118.239,56,164.589,0\C,59,1.40555,58,122.173,57,0.370926,0\H,60,1.08584,59,116.131,58,164.049,0\C,60,1.40104,59,122.835,58,-6.53538,0\H,62,1.08603,60,124.292,59,179.233,0\C,57,1.42317,56,115.924,41,-179.257,0\C,64,1.4759,57,115.694,56,12.0041,0\C,65,1.43253,64,124.007,57,-154.197,0\N,66,1.33734,65,124.016,64,1.72324,0\C,66,1.37986,65,119.227,64,-172.94,0\N,68,1.33203,66,111.335,65,175.46,0\C,68,1.44995,66,119.104,65,-8.78951,0\N,70,1.30693,68,123.229,66,3.42567,0\C,71,1.30754,70,116.609,68,4.43701,0\H,72,1.089,71,114.568,70,176.26,0\C,70,1.46991,68,123.337,66,-174.329,0\C,74,1.39874,70,126.343,68,148.128,0\C,75,1.4047,74,113.237,70,174.112,0\C,76,1.32784,75,117.175,74,-3.70972,0\C,76,1.41788,75,108.181,74,-174.766,0\H,78,1.08403,76,124.485,75,-176.813,0\C,78,1.40052,76,117.374,75,3.44093,0\H,80,1.08277,78,131.351,76,179.341,0\C,77,1.45743,76,123.539,75,-169.948,0\N,82,1.32305,77,117.671,76,-161.923,0\C,83,1.37721,82,115.288,77,-178.802,0\H,84,1.0821,83,119.783,82,176.746,0\C,84,1.37762,83,113.027,82,8.7471,0\H,86,1.08191,84,130.634,83,172.131,0\C,59,1.55019,58,118.18,57,-171.174,0\H,88,1.09637,59,107.005,58,26.5042,0\H,88,1.09702,59,109.356,58,142.49,0\C,88,1.49723,59,112.862,58,-94.0504,0\H,91,1.09677,88,103.899,59,64.5897,0\H,91,1.09769,88,104.794,59,-39.5347,0\C,91,1.49878,88,114.343,59,-167.857,0\H,94,1.09697,91,105.797,88,-37.8031,0\H,94,1.09735,91,109.813,88,75.2406,0\C,94,1.55035,91,115.265,88,-161.65,0\H,97,1.09665,94,109.514,91,38.9411,0\H,97,1.09709,94,113.387,91,-74.3169,0\C,97,1.51092,94,113.62,91,165.163,0\H,100,1.0971,97,114.83,94,-169.422,0\H,100,1.09748,97,107.505,94,-50.1707,0\C,100,1.56557,97,114.161,94,71.143,0\H,103,1.09639,100,106.884,97,-173.646,0\H,103,1.09666,100,114.049,97,67.6968,0\H,103,1.09775,100,107.262,97,-51.8664,0\S,67,1.61143,66,106.831,65,-177.647,0\S,77,1.72319,76,106.829,75,12.3371,0\S,82,1.7244,77,129.3,76,29.2793,0\S,75,1.80423,74,130.35,70,2.52135,0\\\@

 Total job time:  94.98s(wall), 1035.43s(cpu) 
 Sat Oct  6 14:37:26 2018

        *************************************************************
        *                                                           *
        *  Thank you very much for using Q-Chem.  Have a nice day.  *
        *                                                           *
        *************************************************************


