
Running Job 1 of 1 ./10/2.qcin
qchem ./10/2.qcin_29717.0 /tmpu/cab_g/afmv_a/scratch_qchem/qchem29717/ 1
/tmpu/appuserlic/qchem4.4/serial-multicore/exe/qcprog.exe_s ./10/2.qcin_29717.0 /tmpu/cab_g/afmv_a/scratch_qchem/qchem29717/
Check license passed

                  Welcome to Q-Chem
     A Quantum Leap Into The Future Of Chemistry


 Q-Chem 4.4, Q-Chem, Inc., Pleasanton, CA (2016)

 Y. Shao,  Z. Gan,  E. Epifanovsky,  A. T. B. Gilbert,  M. Wormit,  
 J. Kussmann,  A. W. Lange,  A. Behn,  J. Deng,  X. Feng,  D. Ghosh,  
 M. Goldey,  P. R. Horn,  L. D. Jacobson,  I. Kaliman,  F. Rob,  
 R. Z. Khaliullin,  T. Kus,  A. Landau,  J. Liu,  E. I. Proynov,  Y. M. Rhee,  
 R. M. Richard,  M. A. Rohrdanz,  R. P. Steele,  E. J. Sundstrom,  
 H. L. Woodcock III,  P. M. Zimmerman,  D. Zuev,  B. Albrecht,  E. Alguire,  
 B. Austin,  S. A. Baeppler,  G. J. O. Beran,  Y. A. Bernard,  E. Berquist,  
 K. Brandhorst,  K. B. Bravaya,  S. T. Brown,  D. Casanova,  C.-M. Chang,  
 Y. Chen,  S. H. Chien,  K. D. Closser,  M. P. Coons,  D. L. Crittenden,  
 S. Dasgupta,  M. Diedenhofen,  R. A. DiStasio Jr.,  H. Do,  A. D. Dutoi,  
 R. G. Edgar,  P.-T. Fang,  S. Fatehi,  Q. Feng,  L. Fusti-Molnar,  
 A. Ghysels,  A. Golubeva-Zadorozhnaya,  J. Gomes,  A. Gunina,  
 M. W. D. Hanson-Heine,  P. H. P. Harbach,  A. W. Hauser,  J. E. Herr,  
 E. G. Hohenstein,  Z. C. Holden,  K. Hui,  T.-C. Jagau,  H. Ji,  B. Kaduk,  
 K. Khistyaev,  Jaehoon Kim,  Jihan Kim,  R. A. King,  P. Klunzinger,  
 K. Koh,  D. Kosenkov,  T. Kowalczyk,  C. M. Krauter,  A. Kunitsa,  
 K. U. Lao,  A. Laurent,  K. V. Lawler,  J. Lee,  D. Lefrancois,  S. Lehtola,  
 S. V. Levchenko,  C. Y. Lin,  Y.-S. Lin,  F. Liu,  E. Livshits,  
 R. C. Lochan,  A. Luenser,  P. Manohar,  S. F. Manzer,  S.-P. Mao,  Y. Mao,  
 N. Mardirossian,  A. V. Marenich,  L. A. Martinez-Martinez,  S. A. Maurer,  
 N. J. Mayhall,  J.-M. Mewes,  A. F. Morrison,  K. Nanda,  T. S. Nguyen-Beck,  
 C. M. Oana,  R. Olivares-Amaya,  D. P. O'Neill,  J. A. Parkhill,  
 T. M. Perrine,  R. Peverati,  P. A. Pieniazek,  F. Plasser,  A. Prociuk,  
 D. R. Rehn,  E. Rosta,  N. J. Russ,  N. Sergueev,  S. M. Sharada,  
 S. Sharma,  D. W. Small,  A. Sodt,  T. Stauch,  T. Stein,  D. Stuck,  
 Y.-C. Su,  A. J. W. Thom,  T. Tsuchimochi,  L. Vogt,  O. Vydrov,  T. Wang,  
 M. A. Watson,  J. Wenzel,  A. White,  C. F. Williams,  V. Vanovschi,  
 K. Yao,  S. Yeganeh,  S. R. Yost,  Z.-Q. You,  I. Y. Zhang,  X. Zhang,  
 Y. Zhao,  B. R. Brooks,  G. K. L. Chan,  D. M. Chipman,  C. J. Cramer,  
 W. A. Goddard III,  M. S. Gordon,  W. J. Hehre,  A. Klamt,  
 H. F. Schaefer III,  M. W. Schmidt,  C. D. Sherrill,  D. G. Truhlar,  
 A. Warshel,  X. Xu,  A. Aspuru-Guzik,  R. Baer,  A. T. Bell,  N. A. Besley,  
 J.-D. Chai,  A. Dreuw,  B. D. Dunietz,  T. R. Furlani,  S. R. Gwaltney,  
 C.-P. Hsu,  Y. Jung,  J. Kong,  D. S. Lambrecht,  W. Liang,  C. Ochsenfeld,  
 V. A. Rassolov,  L. V. Slipchenko,  J. E. Subotnik,  T. Van Voorhis,  
 J. M. Herbert,  A. I. Krylov,  P. M. W. Gill,  M. Head-Gordon

 Contributors to earlier versions of Q-Chem not listed above: 
 R. D. Adamson,  J. Baker,  E. F. C. Byrd,  A. K. Chakraborty,  C.-L. Cheng,  
 H. Dachsel,  R. J. Doerksen,  G. Hawkins,  A. Heyden,  S. Hirata,  
 G. Kedziora,  F. J. Keil,  C. Kelley,  P. P. Korambath,  W. Kurlancheek,  
 A. M. Lee,  M. S. Lee,  D. Liotard,  I. Lotan,  P. E. Maslen,  N. Nair,  
 D. Neuhauser,  R. Olson,  B. Peters,  J. Ritchie,  N. E. Schultz,  
 N. Shenvi,  A. C. Simmonett,  K. S. Thanthiriwatte,  Q. Wu,  W. Zhang

 Please cite Q-Chem as follows:
 Y. Shao et al., Mol. Phys. 113, 184-215 (2015)
 DOI: 10.1080/00268976.2014.952696

 Q-Chem 4.4.2 for Intel X86 Linux

 Parts of Q-Chem use Armadillo 5.200.1 (Boston Tea Smuggler).
 http://arma.sourceforge.net/

 Q-Chem begins on Sat Oct  6 14:59:24 2018  

Host: 
0

     Scratch files written to /tmpu/cab_g/afmv_a/scratch_qchem/qchem29717//
 Dec716 11556_ 22328  22283 4050   
Processing $rem in /tmpu/appuserlic/qchem4.4/serial-multicore/config/preferences.
 MEM_TOTAL  2000 
FILE_GEOM_ORG=        593

Checking the input file for inconsistencies... 	...done.

--------------------------------------------------------------
User input:
--------------------------------------------------------------
$comment
SP
$end

$rem
MEM_STATIC 5000
MEM_TOTAL 20000
JOBTYPE SP
EXCHANGE B3LYP
BASIS 6-31g(d,p)
$end

$molecule
0 1
C          31.077000      6.516000      1.357000
C          31.047000      5.544000      2.394000
N          30.425000      6.466000      0.192000
C          30.296000      4.382000      2.113000
C          29.627000      5.386000      0.001000
C          29.454000      4.362000      0.967000
C          28.568000      3.210000      0.697000
C          28.414000      2.622000     -0.586000
C          27.720000      2.723000      1.649000
N          27.557000      1.627000     -0.859000
N          27.614000      3.169000      2.916000
C          26.950000      1.610000      1.394000
C          26.854000      1.023000      0.112000
S          26.465000      2.237000      3.680000
N          26.163000      1.251000      2.420000
C          26.153000     -0.169000     -0.382000
S          25.943000     -0.446000     -2.135000
C          25.585000     -1.238000      0.308000
C          25.211000     -2.041000     -1.926000
S          25.522000     -1.560000      1.990000
C          25.121000     -2.266000     -0.552000
C          24.564000     -2.666000     -3.042000
C          24.783000     -3.106000      1.655000
C          24.649000     -3.363000      0.272000
N          24.144000     -3.914000     -2.938000
S          24.140000     -1.865000     -4.512000
C          23.580000     -4.360000     -4.071000
C          23.644000     -3.421000     -5.138000
C          31.723000      7.879000      1.614000
H          31.523000      5.599000      3.369000
H          30.309000      3.629000      2.894000
H          29.147000      5.277000     -0.970000
H          29.065000      2.915000     -1.408000
H          24.499000     -3.800000      2.434000
H          24.189000     -4.237000     -0.175000
H          23.145000     -5.350000     -4.105000
H          23.288000     -3.543000     -6.152000
H          32.132000      8.297000      0.686000
C          32.799000      7.891000      2.732000
H          30.906000      8.560000      1.884000
H          33.518000      7.076000      2.585000
H          32.338000      7.417000      3.606000
C          33.573000      9.232000      3.060000
H          34.171000      9.071000      3.965000
C          32.642000     10.442000      3.144000
H          34.408000      9.378000      2.363000
H          31.935000     10.107000      3.913000
H          32.209000     10.532000      2.140000
C          33.419000     11.698000      3.641000
H          32.711000     12.423000      4.060000
C          34.243000     12.386000      2.525000
H          34.042000     11.424000      4.501000
H          33.464000     12.472000      1.757000
H          35.041000     11.776000      2.084000
H          34.696000     13.311000      2.904000
C          20.427000     -7.850000     12.766000
C          20.678000     -6.695000     11.960000
N          21.167000     -8.982000     12.719000
C          21.859000     -6.651000     11.176000
C          22.244000     -8.915000     11.863000
C          22.605000     -7.832000     11.101000
C          23.782000     -7.771000     10.176000
C          23.798000     -6.955000      9.043000
C          24.889000     -8.610000     10.338000
N          24.861000     -6.824000      8.216000
N          25.048000     -9.489000     11.277000
C          25.998000     -8.613000      9.449000
C          25.942000     -7.723000      8.323000
S          26.480000    -10.243000     11.026000
N          26.867000     -9.558000      9.633000
C          26.896000     -7.522000      7.242000
S          28.495000     -8.178000      7.247000
C          26.767000     -6.655000      6.129000
C          29.073000     -7.186000      5.852000
S          25.316000     -5.931000      5.474000
C          27.972000     -6.425000      5.454000
C          30.380000     -7.191000      5.258000
C          26.424000     -5.132000      4.305000
C          27.773000     -5.470000      4.397000
N          31.177000     -8.132000      5.761000
S          31.112000     -6.160000      4.102000
C          32.494000     -7.807000      5.463000
C          32.664000     -6.682000      4.667000
C          19.196000     -7.819000     13.645000
H          20.068000     -5.797000     11.958000
H          22.210000     -5.734000     10.712000
H          22.807000     -9.836000     11.718000
H          23.056000     -6.196000      8.799000
H          25.935000     -4.603000      3.498000
H          28.584000     -5.117000      3.771000
H          33.295000     -8.435000      5.830000
H          33.579000     -6.320000      4.218000
H          18.297000     -7.514000     13.096000
C          19.362000     -6.680000     14.732000
H          19.056000     -8.750000     14.207000
H          19.481000     -5.724000     14.207000
H          20.377000     -6.675000     15.149000
C          18.337000     -6.818000     15.914000
H          17.338000     -7.058000     15.529000
C          18.283000     -5.598000     16.825000
H          18.611000     -7.610000     16.622000
H          17.603000     -5.786000     17.664000
H          18.003000     -4.696000     16.267000
C          19.614000     -5.239000     17.549000
H          20.098000     -6.105000     18.016000
C          19.343000     -4.260000     18.744000
H          20.321000     -4.684000     16.920000
H          18.639000     -4.745000     19.431000
H          18.935000     -3.276000     18.478000
H          20.275000     -3.954000     19.235000
$end

--------------------------------------------------------------
 ----------------------------------------------------------------
             Standard Nuclear Orientation (Angstroms)
    I     Atom           X                Y                Z
 ----------------------------------------------------------------
    1      C      10.1358161889     3.5630972633     0.5050843281
    2      C       8.8089085385     3.7203859230     0.9905010202
    3      N      10.5936078438     2.5780824674    -0.2727341935
    4      C       7.9152677985     2.6792167421     0.6579668649
    5      C       9.6815236846     1.6528563180    -0.6622775915
    6      C       8.3107195777     1.7075495622    -0.3023251646
    7      C       7.3666576265     0.6666878873    -0.7609688236
    8      C       7.7181203093    -0.7005977987    -0.9111448385
    9      C       6.1188109955     0.9839978924    -1.2134841782
   10      N       6.8936387988    -1.6395992849    -1.3984942488
   11      N       5.5839074238     2.2199246992    -1.2559588450
   12      C       5.2350539123    -0.0079703349    -1.5763429027
   13      C       5.6081736094    -1.3676402380    -1.6732368983
   14      S       4.0395388800     2.0761445790    -1.8615776013
   15      N       4.0504046034     0.4543277004    -2.0050765511
   16      C       4.8470668627    -2.5841946826    -1.9847056825
   17      S       5.6858070602    -4.1135820565    -2.3737135765
   18      C       3.4725396533    -2.8099674701    -2.0191527276
   19      C       4.1954346996    -5.0599602773    -2.4554967658
   20      S       2.1690782362    -1.7490892922    -1.6840365898
   21      C       3.1421964047    -4.1729980517    -2.2305787708
   22      C       4.2327286790    -6.3773035531    -3.0193281704
   23      C       1.0525379390    -3.0769980216    -1.8801441395
   24      C       1.6998611468    -4.3049405536    -2.1443860792
   25      N       3.1610423700    -7.1465463563    -2.9524404680
   26      S       5.5471676067    -7.0214527877    -3.9356245575
   27      C       3.3618403436    -8.3526979761    -3.5052328737
   28      C       4.6978677162    -8.5503164006    -3.9527636747
   29      C      11.1423169854     4.7041660963     0.6664908493
   30      H       8.4087811622     4.5457549854     1.5726436088
   31      H       6.9149231968     2.7880065356     1.0636939392
   32      H      10.0408752811     0.7953423146    -1.2285444579
   33      H       8.6785173646    -1.0653206473    -0.5506608030
   34      H      -0.0170204906    -2.9635804895    -1.7691746436
   35      H       1.2153867532    -5.2554232447    -2.3371351798
   36      H       2.5472429995    -9.0621230591    -3.5654675706
   37      H       5.1216815005    -9.4355005433    -4.4073480011
   38      H      12.1645110203     4.3136095933     0.7424775112
   39      C      10.8462499950     5.6745353080     1.8406168776
   40      H      11.1313011696     5.2594805257    -0.2798994170
   41      H      10.6519593631     5.1157188155     2.7640724953
   42      H       9.8006154958     5.9825573290     1.7272858196
   43      C      11.8406803392     6.8689746745     2.1395548146
   44      H      11.3830963538     7.5153683591     2.8980679001
   45      C      12.2646403932     7.6115029304     0.8719481477
   46      H      12.6907134157     6.5241150599     2.7419380938
   47      H      11.2882132282     7.9030294013     0.4657003068
   48      H      12.7977913523     6.8620662389     0.2738681361
   49      C      13.0957385750     8.8796570138     1.2315799496
   50      H      13.0613150143     9.5878942303     0.3951201098
   51      C      14.5749132359     8.5648158710     1.5642860921
   52      H      12.5989177681     9.4219091486     2.0451748784
   53      H      14.8276082755     7.9546035626     0.6880172089
   54      H      14.7350308741     7.9235478073     2.4397988633
   55      H      15.1343856079     9.4958272728     1.7213957182
   56      C     -10.8072094186     1.8249028827    -2.3824917661
   57      C      -9.4190695837     1.9841311133    -2.6896988127
   58      N     -11.2725555982     1.1401449137    -1.3120748113
   59      C      -8.4547138048     1.5447687655    -1.7471853332
   60      C     -10.2858771292     0.6498690559    -0.4854859280
   61      C      -8.9335252366     0.8079011160    -0.6587609307
   62      C      -7.8701625418     0.2721819842     0.2506013683
   63      C      -6.5941308938    -0.0597507809    -0.2091429877
   64      C      -8.1311246243    -0.0263072683     1.5916520600
   65      N      -5.5873861516    -0.4883639488     0.5869818620
   66      N      -9.2625046013     0.1367989292     2.2024046417
   67      C      -7.1593689695    -0.5832098124     2.4667300586
   68      C      -5.8641953769    -0.8699337843     1.9158882220
   69      S      -9.0840620652    -0.3851953524     3.7444231990
   70      N      -7.5950327635    -0.9587342456     3.6291501456
   71      C      -4.6902124830    -1.4576948323     2.5446800120
   72      S      -4.5442887744    -1.7047059238     4.2490431752
   73      C      -3.4460906932    -1.7571874227     1.9367621225
   74      C      -2.7738400039    -2.0617469131     4.2020763452
   75      S      -3.0806543845    -1.9432133268     0.2366289903
   76      C      -2.4149083216    -1.9916767179     2.8544917597
   77      C      -1.9157301602    -2.3751339842     5.3095717356
   78      C      -1.3866869800    -2.1963689052     0.7834495145
   79      C      -1.1722708710    -2.1995991490     2.1605930429
   80      N      -2.5766746615    -2.5140208395     6.4574226874
   81      S      -0.2120888432    -2.5094348602     5.4307762649
   82      C      -1.6768530359    -2.3896414215     7.5080267053
   83      C      -0.3456188474    -2.2508171179     7.1383182414
   84      C     -11.7990451036     2.3791720747    -3.3814965892
   85      H      -9.0336980131     2.4951045949    -3.5665698714
   86      H      -7.4070370435     1.8207728834    -1.8218922986
   87      H     -10.6117085493     0.0076447256     0.3315922784
   88      H      -6.1999437911     0.1642177249    -1.1994134742
   89      H      -0.6997689332    -2.5200055950     0.0129860891
   90      H      -0.2350308364    -2.3600166532     2.6802596108
   91      H      -2.0374479888    -2.4297674175     8.5273574584
   92      H       0.5248643423    -2.2601475524     7.7802231872
   93      H     -11.5800748164     2.0630106917    -4.4084926911
   94      C     -11.6473086807     3.9537491511    -3.4457545723
   95      H     -12.8394536612     2.1910433094    -3.0910441820
   96      H     -10.6210379360     4.1837581716    -3.7581424866
   97      H     -11.5287708285     4.3817728184    -2.4423187159
   98      C     -12.8685481959     4.6509927686    -4.1451960526
   99      H     -13.1612938691     4.0977185866    -5.0463140529
  100      C     -12.6326276915     6.1207253877    -4.4699491031
  101      H     -13.7521744732     4.7073229101    -3.4974032483
  102      H     -13.5430658558     6.5627914500    -4.8910725360
  103      H     -11.7709485001     6.2482242066    -5.1367481900
  104      C     -12.3489813177     7.0430824889    -3.2478934119
  105      H     -13.0527648777     6.8916353374    -2.4208181668
  106      C     -12.5370805922     8.5497361272    -3.6409843393
  107      H     -11.3110718249     6.9992316869    -2.8952803208
  108      H     -13.5627952154     8.6829117921    -4.0056537157
  109      H     -11.8514139111     8.9376001113    -4.4057710626
  110      H     -12.2912123378     9.2186415286    -2.8070446740
 ----------------------------------------------------------------
 Molecular Point Group                 C1    NOp =  1
 Largest Abelian Subgroup              C1    NOp =  1
 Nuclear Repulsion Energy = 10356.5265746050 hartrees
 There are      270 alpha and      270 beta electrons
 Requested basis set is 6-31G(d,p)
 There are 406 shells and 1262 basis functions

 Total QAlloc Memory Limit  20000 MB
 Mega-Array Size      4888 MB
 MEM_STATIC part      5000 MB
 A cutoff of  1.0D-08 yielded  12314 shell pairs
 There are    128794 function pairs
 
 -------------------------------------------------------
 OpenMP Integral Computing Module                       
 Release: version 1.0, May 2013, Q-Chem Inc. Pittsburgh 
 -------------------------------------------------------
 Integral Job Info:
 Integral job number is                      11
 Integral operator is                         1
 short-range coefficients                     0
 long-range coefficients              100000000
 Omega coefficients                           0
 if combine SR and LR in K                    0
 Integral screening is                        0
 Integral computing path is                   2
 max size of driver memory is            800000
 size of driver memory is                593474
 size of scratch memory is             15166112
 max col of scratch BK array               1296
 max len of scratch array in speh3          155
 max len of scratch index in speh4           18
 max int batch size is                      520
 min int batch size is                       52
 fixed nKL is                                52
 max L of basis functions is                  2
 order of int derivative is                   0
 number of shells is                        406
 number of basis is                        1262
 number of cartesian basis is              1262
 number of contracted shell pairs         12314
 number of primitive shell pairs          40930
 maxK2 (contraction) of shell pair           36
 max number of K2 of shell pair               1
 max number of CS2 of shell pair           1246
 max number of PS2 of shell pair           7476
 mem total for path MDJ                  279544
 -------------------------------------------------------
 Smallest overlap matrix eigenvalue = 4.12E-04

 Scale SEOQF with 1.000000e-02/1.000000e-02/1.000000e-02

 Standard Electronic Orientation quadrupole field applied
 Nucleus-field energy     =     0.0000001244 hartrees
 Guess from superposition of atomic densities
 Warning:  Energy on first SCF cycle will be non-variational
 A restricted hybrid HF-DFT SCF calculation will be
 performed using Pulay DIIS extrapolation
 Exchange:     0.2000 Hartree-Fock + 0.0800 Slater + 0.7200 B88
 Correlation:  0.1900 VWN1RPA + 0.8100 LYP
 Using SG-1 standard quadrature grid
 SCF converges when DIIS error is below 1.0E-05
 using 16 threads for integral computing 
 -------------------------------------------------------
 OpenMP BLAS3 based DFT computing Module                
 Release: version 1.0, May 2013, Q-Chem Inc. Pittsburgh 
 -------------------------------------------------------
 ---------------------------------------
  Cycle       Energy         DIIS Error
 ---------------------------------------
    1   -5680.0066954816      2.14E-02
    2   -5662.5021453771      2.14E-03
    3   -5661.1903477875      3.25E-03
    4   -5663.3844329006      7.37E-04
    5   -5663.4838746931      2.91E-04
    6   -5663.4954492514      1.63E-04
    7   -5663.4999488277      6.87E-05
    8   -5663.5007845369      2.39E-05
    9   -5663.5008996752      6.68E-06 Convergence criterion met
 ---------------------------------------
 SCF time:  CPU 889.94 s  wall 80.87 s
 SCF   energy in the final basis set = -5663.5008996752
 Total energy in the final basis set = -5663.5008996752
 
 --------------------------------------------------------------
 
                    Orbital Energies (a.u.)
 --------------------------------------------------------------
 
 Alpha MOs
 -- Occupied --
-88.992 -88.985 -88.931 -88.931 -88.923 -88.922 -88.917 -88.916
-14.385 -14.384 -14.378 -14.373 -14.349 -14.347 -14.341 -14.340
-14.334 -14.333 -10.269 -10.269 -10.266 -10.265 -10.256 -10.255
-10.250 -10.249 -10.248 -10.246 -10.245 -10.242 -10.242 -10.237
-10.236 -10.235 -10.234 -10.234 -10.234 -10.232 -10.232 -10.231
-10.231 -10.230 -10.230 -10.220 -10.220 -10.219 -10.217 -10.217
-10.214 -10.212 -10.211 -10.209 -10.208 -10.206 -10.203 -10.202
-10.187 -10.185 -10.184 -10.183 -10.183 -10.181 -10.181 -10.180
-10.180 -10.178 -10.175 -10.172  -8.047  -8.041  -7.993  -7.992
 -7.982  -7.980  -7.977  -7.975  -6.013  -6.007  -6.007  -6.005
 -6.001  -5.999  -5.957  -5.956  -5.954  -5.953  -5.950  -5.949
 -5.947  -5.945  -5.943  -5.942  -5.941  -5.939  -5.939  -5.938
 -5.937  -5.936  -5.934  -5.931  -1.057  -1.038  -0.977  -0.970
 -0.964  -0.944  -0.941  -0.932  -0.922  -0.914  -0.907  -0.901
 -0.850  -0.842  -0.836  -0.832  -0.811  -0.811  -0.809  -0.808
 -0.804  -0.803  -0.798  -0.797  -0.785  -0.782  -0.768  -0.765
 -0.750  -0.748  -0.741  -0.739  -0.725  -0.719  -0.712  -0.712
 -0.697  -0.694  -0.678  -0.678  -0.660  -0.652  -0.648  -0.647
 -0.639  -0.635  -0.626  -0.620  -0.614  -0.609  -0.602  -0.602
 -0.597  -0.593  -0.590  -0.586  -0.584  -0.577  -0.562  -0.562
 -0.558  -0.547  -0.545  -0.543  -0.526  -0.522  -0.519  -0.514
 -0.509  -0.509  -0.503  -0.501  -0.488  -0.487  -0.482  -0.480
 -0.475  -0.473  -0.473  -0.472  -0.467  -0.466  -0.454  -0.450
 -0.445  -0.443  -0.442  -0.439  -0.438  -0.437  -0.435  -0.434
 -0.429  -0.428  -0.425  -0.425  -0.422  -0.417  -0.415  -0.413
 -0.412  -0.408  -0.407  -0.404  -0.402  -0.402  -0.401  -0.399
 -0.397  -0.394  -0.392  -0.391  -0.389  -0.388  -0.381  -0.380
 -0.378  -0.376  -0.376  -0.370  -0.369  -0.367  -0.363  -0.362
 -0.355  -0.353  -0.351  -0.348  -0.345  -0.345  -0.342  -0.339
 -0.337  -0.336  -0.334  -0.331  -0.331  -0.329  -0.324  -0.323
 -0.314  -0.313  -0.308  -0.307  -0.306  -0.302  -0.301  -0.301
 -0.297  -0.295  -0.293  -0.293  -0.285  -0.284  -0.283  -0.280
 -0.276  -0.275  -0.267  -0.265  -0.258  -0.255  -0.253  -0.252
 -0.248  -0.242  -0.237  -0.233  -0.194  -0.192
 -- Virtual --
 -0.116  -0.115  -0.078  -0.072  -0.038  -0.035  -0.029  -0.029
 -0.017  -0.016  -0.015  -0.015  -0.011  -0.009  -0.003  -0.001
  0.001   0.005   0.015   0.021   0.024   0.030   0.039   0.045
  0.054   0.057   0.061   0.063   0.067   0.074   0.086   0.087
  0.091   0.092   0.095   0.096   0.105   0.108   0.111   0.111
  0.113   0.114   0.115   0.117   0.117   0.122   0.123   0.124
  0.126   0.128   0.129   0.132   0.135   0.141   0.144   0.151
  0.152   0.153   0.156   0.157   0.159   0.161   0.163   0.163
  0.166   0.168   0.169   0.171   0.176   0.177   0.178   0.180
  0.184   0.185   0.188   0.192   0.193   0.195   0.195   0.198
  0.201   0.202   0.206   0.206   0.210   0.214   0.219   0.220
  0.222   0.224   0.228   0.229   0.229   0.230   0.233   0.234
  0.242   0.244   0.246   0.247   0.248   0.251   0.255   0.260
  0.261   0.264   0.265   0.267   0.270   0.272   0.273   0.275
  0.279   0.279   0.284   0.289   0.292   0.299   0.301   0.301
  0.304   0.306   0.311   0.315   0.315   0.324   0.326   0.328
  0.330   0.334   0.335   0.335   0.338   0.342   0.343   0.346
  0.349   0.350   0.356   0.357   0.360   0.362   0.364   0.365
  0.371   0.372   0.377   0.380   0.385   0.388   0.395   0.401
  0.403   0.409   0.411   0.415   0.422   0.426   0.430   0.434
  0.436   0.437   0.446   0.448   0.460   0.461   0.463   0.463
  0.473   0.474   0.480   0.489   0.492   0.495   0.498   0.500
  0.502   0.505   0.508   0.508   0.512   0.512   0.516   0.516
  0.522   0.523   0.525   0.528   0.529   0.532   0.533   0.534
  0.536   0.537   0.539   0.539   0.541   0.542   0.544   0.547
  0.550   0.552   0.552   0.557   0.558   0.558   0.559   0.563
  0.563   0.567   0.567   0.572   0.574   0.576   0.577   0.579
  0.581   0.582   0.582   0.584   0.587   0.589   0.589   0.593
  0.596   0.597   0.600   0.603   0.605   0.606   0.611   0.611
  0.615   0.618   0.619   0.621   0.621   0.625   0.627   0.627
  0.629   0.632   0.634   0.635   0.637   0.639   0.640   0.641
  0.645   0.649   0.652   0.653   0.655   0.659   0.661   0.662
  0.668   0.675   0.676   0.677   0.681   0.690   0.691   0.693
  0.694   0.697   0.700   0.700   0.706   0.711   0.712   0.713
  0.718   0.721   0.722   0.726   0.730   0.732   0.735   0.738
  0.740   0.744   0.748   0.751   0.755   0.756   0.761   0.766
  0.769   0.769   0.774   0.778   0.778   0.784   0.786   0.790
  0.793   0.794   0.795   0.799   0.800   0.803   0.804   0.808
  0.810   0.812   0.813   0.816   0.818   0.819   0.819   0.821
  0.822   0.826   0.829   0.833   0.833   0.836   0.837   0.838
  0.840   0.843   0.846   0.846   0.849   0.849   0.849   0.854
  0.855   0.858   0.860   0.862   0.863   0.868   0.869   0.870
  0.874   0.876   0.877   0.878   0.883   0.885   0.891   0.892
  0.895   0.896   0.899   0.901   0.903   0.905   0.907   0.908
  0.910   0.911   0.913   0.914   0.915   0.918   0.918   0.927
  0.927   0.930   0.931   0.936   0.937   0.939   0.941   0.945
  0.946   0.949   0.952   0.954   0.958   0.960   0.963   0.965
  0.968   0.971   0.973   0.976   0.978   0.980   0.982   0.984
  0.985   0.989   0.991   0.992   0.999   1.000   1.002   1.002
  1.005   1.007   1.009   1.012   1.014   1.016   1.022   1.023
  1.025   1.027   1.031   1.035   1.036   1.040   1.043   1.046
  1.050   1.053   1.056   1.060   1.061   1.066   1.070   1.074
  1.082   1.085   1.087   1.090   1.096   1.100   1.105   1.108
  1.109   1.116   1.122   1.127   1.132   1.140   1.140   1.143
  1.145   1.153   1.154   1.163   1.163   1.165   1.170   1.178
  1.182   1.186   1.190   1.199   1.202   1.213   1.214   1.225
  1.227   1.237   1.239   1.246   1.256   1.259   1.263   1.268
  1.273   1.275   1.282   1.283   1.287   1.288   1.295   1.302
  1.304   1.308   1.310   1.314   1.321   1.329   1.333   1.340
  1.342   1.345   1.347   1.347   1.354   1.359   1.366   1.368
  1.372   1.380   1.386   1.387   1.387   1.396   1.402   1.408
  1.411   1.416   1.417   1.419   1.419   1.425   1.435   1.437
  1.441   1.443   1.447   1.454   1.455   1.462   1.462   1.468
  1.477   1.478   1.480   1.483   1.483   1.495   1.503   1.508
  1.515   1.522   1.525   1.527   1.538   1.543   1.551   1.557
  1.566   1.571   1.578   1.580   1.589   1.594   1.599   1.603
  1.609   1.614   1.617   1.625   1.642   1.643   1.644   1.650
  1.657   1.659   1.669   1.671   1.672   1.676   1.680   1.681
  1.684   1.689   1.692   1.697   1.698   1.703   1.706   1.706
  1.710   1.722   1.730   1.731   1.732   1.741   1.744   1.744
  1.748   1.751   1.756   1.758   1.760   1.767   1.769   1.775
  1.776   1.778   1.785   1.786   1.793   1.795   1.801   1.809
  1.810   1.814   1.815   1.819   1.828   1.833   1.836   1.839
  1.840   1.845   1.851   1.853   1.859   1.860   1.867   1.869
  1.872   1.872   1.881   1.882   1.883   1.885   1.888   1.890
  1.892   1.895   1.901   1.907   1.909   1.913   1.921   1.923
  1.927   1.928   1.929   1.936   1.938   1.939   1.939   1.945
  1.950   1.957   1.960   1.967   1.972   1.972   1.979   1.981
  1.988   1.990   1.992   1.995   2.000   2.006   2.011   2.018
  2.024   2.026   2.029   2.030   2.043   2.044   2.048   2.063
  2.068   2.071   2.073   2.081   2.081   2.089   2.096   2.098
  2.100   2.105   2.106   2.109   2.111   2.115   2.121   2.126
  2.126   2.132   2.133   2.133   2.137   2.141   2.142   2.151
  2.156   2.156   2.160   2.162   2.171   2.173   2.176   2.180
  2.184   2.188   2.191   2.201   2.205   2.207   2.211   2.218
  2.221   2.225   2.231   2.238   2.239   2.241   2.246   2.256
  2.257   2.257   2.258   2.263   2.273   2.275   2.278   2.281
  2.283   2.287   2.296   2.300   2.301   2.302   2.306   2.308
  2.310   2.315   2.316   2.319   2.322   2.322   2.327   2.330
  2.331   2.340   2.344   2.346   2.353   2.355   2.358   2.359
  2.364   2.370   2.376   2.381   2.387   2.391   2.394   2.394
  2.398   2.401   2.403   2.404   2.409   2.411   2.416   2.418
  2.418   2.420   2.421   2.426   2.428   2.432   2.440   2.447
  2.454   2.454   2.459   2.459   2.462   2.464   2.465   2.469
  2.472   2.480   2.485   2.491   2.495   2.500   2.502   2.505
  2.508   2.518   2.519   2.521   2.523   2.527   2.530   2.534
  2.536   2.537   2.542   2.544   2.546   2.549   2.552   2.554
  2.557   2.559   2.565   2.568   2.574   2.588   2.590   2.594
  2.598   2.600   2.605   2.615   2.625   2.627   2.631   2.640
  2.643   2.645   2.646   2.649   2.657   2.659   2.662   2.667
  2.669   2.672   2.676   2.679   2.685   2.685   2.694   2.699
  2.699   2.702   2.706   2.709   2.720   2.722   2.731   2.741
  2.753   2.755   2.762   2.762   2.764   2.773   2.785   2.793
  2.795   2.796   2.800   2.810   2.812   2.819   2.824   2.826
  2.828   2.831   2.838   2.840   2.843   2.846   2.846   2.851
  2.855   2.871   2.872   2.874   2.877   2.881   2.888   2.892
  2.902   2.908   2.915   2.920   2.930   2.936   2.938   2.959
  2.960   2.961   2.966   2.984   2.985   2.990   3.011   3.018
  3.030   3.036   3.051   3.056   3.062   3.082   3.092   3.098
  3.165   3.166   3.178   3.192   3.204   3.217   3.219   3.228
  3.238   3.244   3.250   3.251   3.253   3.264   3.267   3.288
  3.303   3.305   3.309   3.311   3.318   3.321   3.331   3.334
  3.349   3.356   3.374   3.391   3.394   3.395   3.402   3.406
  3.432   3.438   3.445   3.462   3.473   3.488   3.536   3.547
  3.562   3.565   3.566   3.574   3.576   3.577   3.578   3.582
  3.592   3.638   3.709   3.723   3.845   3.857   3.907   3.925
  3.938   3.940   3.951   3.957   3.960   3.987   3.993   4.006
  4.010   4.050   4.069   4.072   4.094   4.095   4.111   4.116
  4.127   4.128   4.134   4.139   4.144   4.151   4.178   4.190
  4.201   4.204   4.220   4.229   4.242   4.243   4.258   4.262
  4.266   4.272   4.321   4.340   4.357   4.374   4.377   4.386
  4.412   4.416   4.427   4.453   4.459   4.469   4.487   4.488
  4.490   4.494   4.521   4.543   4.568   4.606   4.639   4.646
  4.677   4.685   4.698   4.704   4.746   4.750   4.801   4.807
 --------------------------------------------------------------
 
          Ground-State Mulliken Net Atomic Charges

     Atom                 Charge (a.u.)
  ----------------------------------------
      1 C                     0.256043
      2 C                    -0.100699
      3 N                    -0.476732
      4 C                    -0.071291
      5 C                     0.073757
      6 C                     0.037617
      7 C                    -0.004290
      8 C                     0.060820
      9 C                     0.283069
     10 N                    -0.517830
     11 N                    -0.579877
     12 C                     0.185959
     13 C                     0.329540
     14 S                     0.603721
     15 N                    -0.553875
     16 C                    -0.240834
     17 S                     0.310648
     18 C                    -0.107127
     19 C                    -0.207362
     20 S                     0.309089
     21 C                     0.142935
     22 C                     0.046319
     23 C                    -0.321350
     24 C                    -0.074664
     25 N                    -0.421087
     26 S                     0.288722
     27 C                     0.123412
     28 C                    -0.318274
     29 C                    -0.218571
     30 H                     0.102249
     31 H                     0.107881
     32 H                     0.103043
     33 H                     0.117321
     34 H                     0.128455
     35 H                     0.124672
     36 H                     0.117506
     37 H                     0.133889
     38 H                     0.115646
     39 C                    -0.203369
     40 H                     0.124704
     41 H                     0.090807
     42 H                     0.089313
     43 C                    -0.185219
     44 H                     0.089101
     45 C                    -0.172023
     46 H                     0.093398
     47 H                     0.095399
     48 H                     0.101590
     49 C                    -0.184495
     50 H                     0.091635
     51 C                    -0.312284
     52 H                     0.089945
     53 H                     0.106497
     54 H                     0.105418
     55 H                     0.103485
     56 C                     0.277556
     57 C                    -0.122044
     58 N                    -0.492984
     59 C                    -0.093006
     60 C                     0.073356
     61 C                     0.085364
     62 C                     0.063565
     63 C                     0.038069
     64 C                     0.239989
     65 N                    -0.515474
     66 N                    -0.574418
     67 C                     0.206593
     68 C                     0.281926
     69 S                     0.588448
     70 N                    -0.537370
     71 C                    -0.236692
     72 S                     0.348270
     73 C                    -0.105810
     74 C                    -0.214749
     75 S                     0.290703
     76 C                     0.138922
     77 C                     0.050437
     78 C                    -0.303403
     79 C                    -0.077366
     80 N                    -0.424026
     81 S                     0.284640
     82 C                     0.111338
     83 C                    -0.314281
     84 C                    -0.232292
     85 H                     0.092953
     86 H                     0.106660
     87 H                     0.119390
     88 H                     0.108788
     89 H                     0.108623
     90 H                     0.115801
     91 H                     0.117227
     92 H                     0.137758
     93 H                     0.112502
     94 C                    -0.193286
     95 H                     0.119454
     96 H                     0.089441
     97 H                     0.107325
     98 C                    -0.178225
     99 H                     0.091938
    100 C                    -0.169214
    101 H                     0.100302
    102 H                     0.087940
    103 H                     0.091885
    104 C                    -0.178907
    105 H                     0.096563
    106 C                    -0.326342
    107 H                     0.096053
    108 H                     0.100934
    109 H                     0.099378
    110 H                     0.097444
  ----------------------------------------
  Sum of atomic charges =     0.000000

 -----------------------------------------------------------------
                    Cartesian Multipole Moments
 -----------------------------------------------------------------
    Charge (ESU x 10^10)
                 0.0000
    Dipole Moment (Debye)
         X       1.6791      Y       1.0056      Z      -0.2475
       Tot       1.9727
    Quadrupole Moments (Debye-Ang)
        XX    -496.1576     XY     -12.6854     YY    -414.4323
        XZ      20.8969     YZ      12.2126     ZZ    -420.0653
    Octopole Moments (Debye-Ang^2)
       XXX      11.2157    XXY      75.5081    XYY     181.0457
       YYY    -208.0973    XXZ      17.3652    XYZ     125.9487
       YYZ    -153.5906    XZZ      10.7141    YZZ     -65.5263
       ZZZ     154.7482
    Hexadecapole Moments (Debye-Ang^3)
      XXXX -166204.4304   XXXY    -850.6944   XXYY  -31811.0512
      XYYY    -599.2823   YYYY  -39661.7366   XXXZ     850.3991
      XXYZ     517.4625   XYYZ    -288.4201   YYYZ    2059.0217
      XXZZ  -29041.7940   XYZZ    -610.9493   YYZZ  -10371.2659
      XZZZ     138.0998   YZZZ    -125.1182   ZZZZ  -21559.6762
 -----------------------------------------------------------------
Archival summary:
1\1\mn426\SP\ProcedureUnspecified\6-31G**\8105042\afmv_a\SatOct615:00:492018SatOct615:00:492018\0\\#,ProcedureUnspecified,6-31G**,\\0,1\S\C,1,1.7137\C,2,1.39337,1,130.179\C,2,1.41834,1,116.546,3,-172.413,0\C,4,1.39521,2,117.332,1,177.681,0\C,5,1.43342,4,131.858,2,162.032,0\N,6,1.32088,5,119.616,4,26.3567,0\C,7,1.3419,6,112.407,5,179.037,0\H,8,1.08189,7,119.978,6,176.695,0\C,8,1.42278,7,113.262,6,-3.82037,0\H,10,1.08158,8,127.867,7,-178.386,0\C,4,1.45092,2,108.063,1,-1.92973,0\H,12,1.08411,4,120.891,2,-176.092,0\C,12,1.41304,4,112.798,2,0.0998122,0\H,14,1.08126,12,124.298,4,179.368,0\C,3,1.46843,2,130.601,1,1.10942,0\N,16,1.34234,3,111.834,2,-163.245,0\C,17,1.34127,16,121.412,3,170.713,0\H,18,1.08873,17,115.342,16,-169.066,0\C,16,1.41326,3,132.435,2,14.7183,0\N,20,1.34199,16,122.86,3,12.1724,0\C,20,1.37721,16,122.793,3,-177.36,0\N,22,1.34738,20,113.43,16,-176.388,0\C,22,1.36476,20,120.439,16,8.53301,0\C,24,1.47817,22,121.542,20,176.944,0\C,25,1.41833,24,120.755,22,137.619,0\H,26,1.08863,25,118.778,24,3.96756,0\N,26,1.35635,25,123.417,24,-179.962,0\C,28,1.33597,26,116.087,25,-0.988257,0\C,29,1.42164,28,126.884,26,-1.74329,0\H,30,1.08638,29,127.647,28,175.969,0\C,30,1.41181,29,115.39,28,-3.38999,0\H,32,1.08496,30,114.935,29,-177.78,0\C,29,1.53008,28,112.697,26,168.411,0\H,34,1.0969,29,110.78,28,38.1382,0\H,34,1.09734,29,106.249,28,-74.712,0\C,34,1.55172,29,114.877,28,164.033,0\H,37,1.09593,34,106.234,29,51.1386,0\H,37,1.09672,34,110.627,29,-49.1013,0\C,37,1.5827,34,119.668,29,-178.048,0\H,40,1.09661,37,108.259,34,-171.701,0\H,40,1.09743,37,110.683,34,82.6648,0\C,40,1.52902,37,112.589,34,-45.0635,0\H,43,1.09701,40,100.91,37,-56.4275,0\H,43,1.09709,40,104.771,37,62.5823,0\C,43,1.55829,40,110.595,37,-172.952,0\H,46,1.09656,43,109.441,40,158.316,0\H,46,1.09672,43,109.389,40,45.6475,0\C,46,1.54848,43,113.178,40,-79.9313,0\H,49,1.09699,46,115.453,43,62.5339,0\H,49,1.0973,46,99.2922,43,-50.4567,0\H,49,1.09749,46,110.196,43,-174.943,0\S,21,1.62819,20,108.716,16,174.572,0\S,6,1.72693,5,124.842,4,-147.582,0\S,5,1.76735,4,106.781,2,-0.726786,0\H,15,1.95934,14,117.502,12,-111.306,0\C,56,1.08176,15,159.525,14,-165.214,0\C,57,1.39374,56,127.255,15,-175.315,0\H,58,1.08361,57,127.392,56,-11.5519,0\C,58,1.43836,57,110.086,56,166.716,0\C,60,1.39633,58,132.875,57,-171.385,0\C,60,1.4002,58,110.137,57,4.07343,0\C,62,1.41672,60,113.634,58,176.196,0\C,61,1.43566,60,126.999,58,-0.49267,0\N,64,1.3318,61,113.017,60,172.813,0\C,65,1.38885,64,108.729,61,161.312,0\H,66,1.08198,65,119.565,64,-177.275,0\C,66,1.38858,65,115.384,64,4.18394,0\H,68,1.08161,66,127.785,65,171.924,0\C,63,1.45571,62,127.461,60,-164.526,0\N,70,1.41004,63,110.98,62,5.78773,0\C,71,1.35317,70,119.614,63,-172.67,0\H,72,1.08912,71,109.318,70,178.517,0\C,72,1.39635,71,124.157,70,-12.3273,0\C,74,1.39843,72,115.819,71,8.07434,0\N,75,1.29601,74,126.012,72,176.459,0\C,75,1.42134,74,123.124,72,-2.43375,0\N,77,1.29694,75,115.823,74,171.698,0\C,74,1.49822,72,122.259,71,-176.87,0\C,79,1.37254,74,125.557,72,-151.433,0\H,80,1.08914,79,117.217,74,5.74811,0\N,80,1.37737,79,126.091,74,-179.824,0\C,82,1.35323,80,114.109,79,-0.466249,0\C,79,1.39889,74,114.688,72,29.8108,0\H,84,1.086,79,121.171,74,8.80256,0\C,84,1.41822,79,116.585,74,-175.332,0\H,86,1.08559,84,116.183,79,175.886,0\C,83,1.51293,82,118.833,80,-178.388,0\H,88,1.09645,83,112.599,82,-2.50774,0\H,88,1.09664,83,112.449,82,126.307,0\C,88,1.58318,83,109.168,82,-119.701,0\H,91,1.09714,88,108.042,83,-59.9233,0\H,91,1.09733,88,111.173,83,42.4115,0\C,91,1.5706,88,112.648,83,164.498,0\H,94,1.09709,91,112.713,88,-76.4973,0\H,94,1.09719,91,110.448,88,43.4004,0\C,94,1.52356,91,113.751,88,168.522,0\H,97,1.0962,94,110.017,91,176.114,0\H,97,1.09698,94,111.304,91,-59.3431,0\C,97,1.55712,94,115.616,91,60.8263,0\H,100,1.09649,97,113.157,94,47.1881,0\H,100,1.09705,97,113.636,94,-80.6712,0\C,100,1.56841,97,110.517,94,163.566,0\H,103,1.09673,100,108.189,97,-58.2056,0\H,103,1.09697,100,111.614,97,177.053,0\H,103,1.09794,100,116.043,97,63.3425,0\S,78,1.59983,77,105.869,75,10.4226,0\S,64,1.71322,61,131.764,60,-11.2604,0\S,63,1.72834,62,108.59,60,7.82088,0\S,62,1.74889,60,117.74,58,-6.80756,0\\\@

 Total job time:  84.72s(wall), 900.87s(cpu) 
 Sat Oct  6 15:00:49 2018

        *************************************************************
        *                                                           *
        *  Thank you very much for using Q-Chem.  Have a nice day.  *
        *                                                           *
        *************************************************************


