
Running Job 1 of 1 ./10/27.qcin
qchem ./10/27.qcin_29559.0 /tmpu/cab_g/afmv_a/scratch_qchem/qchem29559/ 1
/tmpu/appuserlic/qchem4.4/serial-multicore/exe/qcprog.exe_s ./10/27.qcin_29559.0 /tmpu/cab_g/afmv_a/scratch_qchem/qchem29559/
Check license passed

                  Welcome to Q-Chem
     A Quantum Leap Into The Future Of Chemistry


 Q-Chem 4.4, Q-Chem, Inc., Pleasanton, CA (2016)

 Y. Shao,  Z. Gan,  E. Epifanovsky,  A. T. B. Gilbert,  M. Wormit,  
 J. Kussmann,  A. W. Lange,  A. Behn,  J. Deng,  X. Feng,  D. Ghosh,  
 M. Goldey,  P. R. Horn,  L. D. Jacobson,  I. Kaliman,  F. Rob,  
 R. Z. Khaliullin,  T. Kus,  A. Landau,  J. Liu,  E. I. Proynov,  Y. M. Rhee,  
 R. M. Richard,  M. A. Rohrdanz,  R. P. Steele,  E. J. Sundstrom,  
 H. L. Woodcock III,  P. M. Zimmerman,  D. Zuev,  B. Albrecht,  E. Alguire,  
 B. Austin,  S. A. Baeppler,  G. J. O. Beran,  Y. A. Bernard,  E. Berquist,  
 K. Brandhorst,  K. B. Bravaya,  S. T. Brown,  D. Casanova,  C.-M. Chang,  
 Y. Chen,  S. H. Chien,  K. D. Closser,  M. P. Coons,  D. L. Crittenden,  
 S. Dasgupta,  M. Diedenhofen,  R. A. DiStasio Jr.,  H. Do,  A. D. Dutoi,  
 R. G. Edgar,  P.-T. Fang,  S. Fatehi,  Q. Feng,  L. Fusti-Molnar,  
 A. Ghysels,  A. Golubeva-Zadorozhnaya,  J. Gomes,  A. Gunina,  
 M. W. D. Hanson-Heine,  P. H. P. Harbach,  A. W. Hauser,  J. E. Herr,  
 E. G. Hohenstein,  Z. C. Holden,  K. Hui,  T.-C. Jagau,  H. Ji,  B. Kaduk,  
 K. Khistyaev,  Jaehoon Kim,  Jihan Kim,  R. A. King,  P. Klunzinger,  
 K. Koh,  D. Kosenkov,  T. Kowalczyk,  C. M. Krauter,  A. Kunitsa,  
 K. U. Lao,  A. Laurent,  K. V. Lawler,  J. Lee,  D. Lefrancois,  S. Lehtola,  
 S. V. Levchenko,  C. Y. Lin,  Y.-S. Lin,  F. Liu,  E. Livshits,  
 R. C. Lochan,  A. Luenser,  P. Manohar,  S. F. Manzer,  S.-P. Mao,  Y. Mao,  
 N. Mardirossian,  A. V. Marenich,  L. A. Martinez-Martinez,  S. A. Maurer,  
 N. J. Mayhall,  J.-M. Mewes,  A. F. Morrison,  K. Nanda,  T. S. Nguyen-Beck,  
 C. M. Oana,  R. Olivares-Amaya,  D. P. O'Neill,  J. A. Parkhill,  
 T. M. Perrine,  R. Peverati,  P. A. Pieniazek,  F. Plasser,  A. Prociuk,  
 D. R. Rehn,  E. Rosta,  N. J. Russ,  N. Sergueev,  S. M. Sharada,  
 S. Sharma,  D. W. Small,  A. Sodt,  T. Stauch,  T. Stein,  D. Stuck,  
 Y.-C. Su,  A. J. W. Thom,  T. Tsuchimochi,  L. Vogt,  O. Vydrov,  T. Wang,  
 M. A. Watson,  J. Wenzel,  A. White,  C. F. Williams,  V. Vanovschi,  
 K. Yao,  S. Yeganeh,  S. R. Yost,  Z.-Q. You,  I. Y. Zhang,  X. Zhang,  
 Y. Zhao,  B. R. Brooks,  G. K. L. Chan,  D. M. Chipman,  C. J. Cramer,  
 W. A. Goddard III,  M. S. Gordon,  W. J. Hehre,  A. Klamt,  
 H. F. Schaefer III,  M. W. Schmidt,  C. D. Sherrill,  D. G. Truhlar,  
 A. Warshel,  X. Xu,  A. Aspuru-Guzik,  R. Baer,  A. T. Bell,  N. A. Besley,  
 J.-D. Chai,  A. Dreuw,  B. D. Dunietz,  T. R. Furlani,  S. R. Gwaltney,  
 C.-P. Hsu,  Y. Jung,  J. Kong,  D. S. Lambrecht,  W. Liang,  C. Ochsenfeld,  
 V. A. Rassolov,  L. V. Slipchenko,  J. E. Subotnik,  T. Van Voorhis,  
 J. M. Herbert,  A. I. Krylov,  P. M. W. Gill,  M. Head-Gordon

 Contributors to earlier versions of Q-Chem not listed above: 
 R. D. Adamson,  J. Baker,  E. F. C. Byrd,  A. K. Chakraborty,  C.-L. Cheng,  
 H. Dachsel,  R. J. Doerksen,  G. Hawkins,  A. Heyden,  S. Hirata,  
 G. Kedziora,  F. J. Keil,  C. Kelley,  P. P. Korambath,  W. Kurlancheek,  
 A. M. Lee,  M. S. Lee,  D. Liotard,  I. Lotan,  P. E. Maslen,  N. Nair,  
 D. Neuhauser,  R. Olson,  B. Peters,  J. Ritchie,  N. E. Schultz,  
 N. Shenvi,  A. C. Simmonett,  K. S. Thanthiriwatte,  Q. Wu,  W. Zhang

 Please cite Q-Chem as follows:
 Y. Shao et al., Mol. Phys. 113, 184-215 (2015)
 DOI: 10.1080/00268976.2014.952696

 Q-Chem 4.4.2 for Intel X86 Linux

 Parts of Q-Chem use Armadillo 5.200.1 (Boston Tea Smuggler).
 http://arma.sourceforge.net/

 Q-Chem begins on Sat Oct  6 14:53:42 2018  

Host: 
0

     Scratch files written to /tmpu/cab_g/afmv_a/scratch_qchem/qchem29559//
 Dec716 11556_ 22328  22283 4050   
Processing $rem in /tmpu/appuserlic/qchem4.4/serial-multicore/config/preferences.
 MEM_TOTAL  2000 
FILE_GEOM_ORG=        593

Checking the input file for inconsistencies... 	...done.

--------------------------------------------------------------
User input:
--------------------------------------------------------------
$comment
SP
$end

$rem
MEM_STATIC 5000
MEM_TOTAL 20000
JOBTYPE SP
EXCHANGE B3LYP
BASIS 6-31g(d,p)
$end

$molecule
0 1
C           8.111000     18.327000     -7.223000
C           6.856000     17.759000     -7.459000
N           9.054000     17.483000     -6.760000
C           6.429000     16.479000     -7.091000
C           8.666000     16.236000     -6.415000
C           7.338000     15.606000     -6.576000
C           6.970000     14.180000     -6.374000
C           5.933000     13.913000     -5.547000
C           7.667000     13.161000     -6.971000
N           5.461000     12.693000     -5.328000
N           8.703000     13.276000     -7.830000
C           7.147000     11.816000     -6.867000
C           6.000000     11.634000     -5.971000
S           8.966000     11.698000     -8.381000
N           7.826000     10.901000     -7.625000
C           5.338000     10.314000     -5.740000
S           5.965000      8.753000     -6.273000
C           4.227000     10.074000     -4.926000
C           4.618000      7.831000     -5.506000
S           3.105000     11.272000     -4.325000
C           3.828000      8.714000     -4.870000
C           4.384000      6.489000     -5.478000
C           1.973000      9.895000     -3.995000
C           2.547000      8.632000     -4.221000
N           5.002000      5.858000     -6.411000
S           3.572000      5.504000     -4.246000
C           4.982000      4.496000     -6.197000
C           4.221000      4.070000     -5.182000
C           8.588000     19.778000     -7.482000
H           6.059000     18.416000     -7.795000
H           5.376000     16.255000     -7.237000
H           9.496000     15.677000     -5.985000
H           5.312000     14.687000     -5.098000
H           1.066000     10.091000     -3.439000
H           2.071000      7.682000     -4.003000
H           5.597000      3.869000     -6.829000
H           4.117000      3.103000     -4.709000
H           9.254000     19.902000     -8.345000
C           9.151000     20.386000     -6.143000
H           7.640000     20.284000     -7.704000
H          10.171000     20.025000     -5.964000
H           8.485000     20.145000     -5.304000
C           9.200000     21.944000     -6.140000
H           8.169000     22.313000     -6.204000
C           9.999000     22.634000     -7.277000
H           9.427000     22.388000     -5.163000
H           9.781000     22.060000     -8.186000
H          11.077000     22.496000     -7.129000
C           9.588000     24.145000     -7.367000
H          10.033000     24.534000     -8.291000
C           9.915000     25.048000     -6.085000
H           8.511000     24.285000     -7.524000
H          10.984000     25.236000     -5.923000
H           9.562000     24.518000     -5.192000
H           9.466000     26.049000     -6.075000
C           3.072000     -0.686000     -3.913000
C           2.740000      0.285000     -2.952000
N           2.433000     -0.690000     -5.047000
C           1.816000      1.318000     -3.234000
C           1.503000      0.250000     -5.319000
C           1.131000      1.296000     -4.430000
C           0.154000      2.393000     -4.730000
C           0.384000      3.728000     -4.414000
C          -1.101000      2.150000     -5.258000
N          -0.470000      4.736000     -4.524000
N          -1.548000      0.915000     -5.583000
C          -2.017000      3.154000     -5.482000
C          -1.672000      4.489000     -5.042000
S          -2.935000      1.115000     -6.363000
N          -3.157000      2.694000     -6.074000
C          -2.505000      5.606000     -5.481000
S          -4.029000      5.515000     -6.390000
C          -2.102000      6.960000     -5.327000
C          -4.263000      7.280000     -6.181000
S          -0.676000      7.728000     -4.592000
C          -3.117000      7.808000     -5.638000
C          -5.507000      8.042000     -6.270000
C          -1.457000      9.307000     -4.818000
C          -2.738000      9.177000     -5.340000
N          -6.600000      7.391000     -5.928000
S          -5.573000      9.780000     -6.608000
C          -7.681000      8.301000     -5.827000
C          -7.291000      9.554000     -6.290000
C           4.015000     -1.843000     -3.656000
H           3.327000      0.388000     -2.044000
H           1.867000      2.237000     -2.658000
H           1.136000      0.181000     -6.342000
H           1.305000      3.908000     -3.862000
H          -0.943000     10.253000     -4.706000
H          -3.276000     10.091000     -5.565000
H          -8.705000      7.997000     -5.654000
H          -7.953000     10.407000     -6.352000
H           4.343000     -1.797000     -2.610000
C           5.320000     -1.820000     -4.541000
H           3.506000     -2.806000     -3.791000
H           5.899000     -0.931000     -4.262000
H           4.944000     -1.755000     -5.569000
C           6.224000     -3.037000     -4.269000
H           7.238000     -2.732000     -4.555000
C           5.871000     -4.293000     -5.095000
H           6.350000     -3.312000     -3.215000
H           5.991000     -3.953000     -6.131000
H           4.857000     -4.668000     -4.911000
C           6.806000     -5.511000     -4.832000
H           7.855000     -5.303000     -5.073000
C           6.441000     -6.793000     -5.671000
H           6.847000     -5.680000     -3.749000
H           7.166000     -7.600000     -5.507000
H           6.336000     -6.401000     -6.690000
H           5.439000     -7.148000     -5.401000
$end

--------------------------------------------------------------
 ----------------------------------------------------------------
             Standard Nuclear Orientation (Angstroms)
    I     Atom           X                Y                Z
 ----------------------------------------------------------------
    1      C      11.4942018544    -0.7906636374    -0.5532593173
    2      C      10.5018343010     0.1474598088    -0.8507085373
    3      N      11.0515637791    -2.0013436031    -0.1604749552
    4      C       9.1302911500     0.0284847127    -0.6039955225
    5      C       9.7275447777    -2.1426201672     0.0666651257
    6      C       8.6432378738    -1.1637256659    -0.1623525452
    7      C       7.1755942164    -1.3895771852    -0.0936707715
    8      C       6.4521667777    -0.5633605709     0.6966493202
    9      C       6.5681234281    -2.4133171237    -0.7744899689
   10      N       5.1308186534    -0.6133294317     0.8000284633
   11      N       7.1547677630    -3.2972832335    -1.6104650529
   12      C       5.1234602160    -2.4649418798    -0.7973829413
   13      C       4.4286749285    -1.5061680307     0.0683971178
   14      S       5.8610792379    -4.1421841073    -2.2999333360
   15      N       4.6181132772    -3.4269354284    -1.6292620695
   16      C       2.9401204668    -1.4209165861     0.1730049843
   17      S       1.8033666738    -2.5944022480    -0.4938242409
   18      C       2.2134841347    -0.5157092852     0.9521817185
   19      C       0.3637163717    -1.7380666796     0.1746654014
   20      S       2.8176108824     0.9688976360     1.6495067233
   21      C       0.8067659946    -0.6831615785     0.8811831007
   22      C      -0.9593008622    -2.0494336670     0.0788530952
   23      C       1.0837219918     1.4613125850     1.8434392712
   24      C       0.1723558181     0.4448444799     1.5088869004
   25      N      -1.2133902146    -2.8392266502    -0.9020850500
   26      S      -2.2869078180    -1.7226290497     1.2093624994
   27      C      -2.4868291169    -3.3603686835    -0.8126180559
   28      C      -3.2637712282    -2.8554594179     0.1529126734
   29      C      13.0324826083    -0.6536836502    -0.6754878125
   30      H      10.8195681909     1.1470996879    -1.1327001815
   31      H       8.5243905583     0.9131333420    -0.7788734103
   32      H       9.5043378205    -3.1368081078     0.4514377768
   33      H       6.8780083813     0.2985842929     1.2085360073
   34      H       0.8587713871     2.3568613991     2.4069909964
   35      H      -0.9032707986     0.5043664615     1.6357116423
   36      H      -2.7645558506    -4.1541480661    -1.4934705753
   37      H      -4.2310188814    -3.1517454141     0.5353791240
   38      H      13.4824261921    -1.1937470995    -1.5178554532
   39      C      13.6940236302    -0.9702065676     0.7179721687
   40      H      13.1427780912     0.4225122465    -0.8589579695
   41      H      13.7484905455    -2.0546186091     0.8723932794
   42      H      13.1390404948    -0.4753203536     1.5258331435
   43      C      15.1394708857    -0.4049349249     0.8626241701
   44      H      15.0780291592     0.6895516250     0.8233545087
   45      C      16.1836339483    -0.8379873451    -0.2001359629
   46      H      15.5503356772    -0.4667168023     1.8777926894
   47      H      15.6513771238    -0.8372934765    -1.1592935054
   48      H      16.4677393753    -1.8875119782    -0.0558648612
   49      C      17.4134915642     0.1344716949    -0.1563677102
   50      H      18.0245762698    -0.0968414779    -1.0373851327
   51      C      18.2574037868     0.1521370108     1.2050147111
   52      H      17.1323910054     1.1841088266    -0.3094113891
   53      H      18.8352378573    -0.7617723090     1.3927020634
   54      H      17.5560388770     0.2444564890     2.0431807909
   55      H      18.9967180841     0.9569651709     1.3018031539
   56      C      -8.1795546025    -3.6972179005     0.9754784603
   57      C      -7.5042957298    -3.0380042940     2.0176151480
   58      N      -8.3357214355    -3.0798195975    -0.1597414549
   59      C      -6.8968608481    -1.7757467200     1.8223776485
   60      C      -7.8166589350    -1.8487573018    -0.3535035372
   61      C      -7.0821903381    -1.1213851752     0.6233826740
   62      C      -6.4354080594     0.2151851884     0.4155597995
   63      C      -5.1502238760     0.5179881691     0.8532731413
   64      C      -7.1048729239     1.2887059863    -0.1432137605
   65      N      -4.5531181227     1.7013262134     0.8276646986
   66      N      -8.3829279885     1.2248924949    -0.5827158541
   67      C      -6.5258817824     2.5306426562    -0.2832514910
   68      C      -5.2063015858     2.7242628574     0.2789489380
   69      S      -8.6767560627     2.6003300236    -1.3534334856
   70      N      -7.3433153373     3.4151529965    -0.9244284100
   71      C      -4.4726004199     3.9400799186    -0.0642280905
   72      S      -5.0754618358     5.3310579717    -0.9909838128
   73      C      -3.0880294740     4.0957034754     0.2153887978
   74      C      -3.5694934609     6.2319997873    -0.6248894282
   75      S      -1.8887048583     3.0649004459     1.0293854689
   76      C      -2.6831923787     5.3699668822    -0.0262921828
   77      C      -3.3525832145     7.6770350964    -0.6552851588
   78      C      -0.7300736831     4.4080234028     0.9406582313
   79      C      -1.3068086365     5.5495619350     0.3978769005
   80      N      -4.4074914827     8.4176960060    -0.3832484654
   81      S      -1.7578964646     8.4280053630    -0.8349009394
   82      C      -4.0075595318     9.7655689145    -0.2095963497
   83      C      -2.6670213463     9.9106156917    -0.5536847185
   84      C      -8.8908905435    -5.0248407802     1.1347444895
   85      H      -7.2582928275    -3.5625524356     2.9362956253
   86      H      -6.0854076854    -1.4784955317     2.4797386573
   87      H      -7.9351647297    -1.5100326054    -1.3817063171
   88      H      -4.6716749914    -0.2737194362     1.4273245613
   89      H       0.3281737299     4.3028746337     1.1424307499
   90      H      -0.6617030873     6.4086415199     0.2519793431
   91      H      -4.7030024926    10.5833948498    -0.0737993405
   92      H      -2.1406026654    10.8553294312    -0.5438703018
   93      H      -8.8107531426    -5.3373460579     2.1834267333
   94      C      -8.2805944561    -6.1915166228     0.2668820787
   95      H      -9.9607433810    -4.9303155435     0.9085700308
   96      H      -7.2635040275    -6.3833860935     0.6303599544
   97      H      -8.2795132423    -5.7918765614    -0.7542308692
   98      C      -9.0634808236    -7.5071955720     0.4353066558
   99      H      -8.3612425167    -8.3123126956     0.1869827192
  100      C     -10.2803736888    -7.6518469818    -0.5041978541
  101      H      -9.3572568765    -7.7599211388     1.4610953371
  102      H      -9.8320503881    -7.6003827612    -1.5040246651
  103      H     -11.0378504240    -6.8713386562    -0.3637957555
  104      C     -11.0512218016    -8.9961779561    -0.3445563221
  105      H     -10.4279560938    -9.8727292632    -0.5565555286
  106      C     -12.2955034986    -9.1396213716    -1.2994683835
  107      H     -11.2838405365    -9.1300048895     0.7189801728
  108      H     -12.7639193274   -10.1270665858    -1.2029875029
  109      H     -11.8893964274    -8.8613347451    -2.2796130668
  110      H     -13.0374200118    -8.3646877977    -1.0715060105
 ----------------------------------------------------------------
 Molecular Point Group                 C1    NOp =  1
 Largest Abelian Subgroup              C1    NOp =  1
 Nuclear Repulsion Energy = 10835.7367266446 hartrees
 There are      270 alpha and      270 beta electrons
 Requested basis set is 6-31G(d,p)
 There are 406 shells and 1262 basis functions

 Total QAlloc Memory Limit  20000 MB
 Mega-Array Size      4888 MB
 MEM_STATIC part      5000 MB
 A cutoff of  1.0D-08 yielded  12979 shell pairs
 There are    135559 function pairs
 
 -------------------------------------------------------
 OpenMP Integral Computing Module                       
 Release: version 1.0, May 2013, Q-Chem Inc. Pittsburgh 
 -------------------------------------------------------
 Integral Job Info:
 Integral job number is                      11
 Integral operator is                         1
 short-range coefficients                     0
 long-range coefficients              100000000
 Omega coefficients                           0
 if combine SR and LR in K                    0
 Integral screening is                        0
 Integral computing path is                   2
 max size of driver memory is            800000
 size of driver memory is                593474
 size of scratch memory is             15166112
 max col of scratch BK array               1296
 max len of scratch array in speh3          155
 max len of scratch index in speh4           18
 max int batch size is                      520
 min int batch size is                       52
 fixed nKL is                                52
 max L of basis functions is                  2
 order of int derivative is                   0
 number of shells is                        406
 number of basis is                        1262
 number of cartesian basis is              1262
 number of contracted shell pairs         12979
 number of primitive shell pairs          42205
 maxK2 (contraction) of shell pair           36
 max number of K2 of shell pair               1
 max number of CS2 of shell pair           1306
 max number of PS2 of shell pair           7836
 mem total for path MDJ                  279544
 -------------------------------------------------------
 Smallest overlap matrix eigenvalue = 4.10E-04

 Scale SEOQF with 1.000000e-03/1.000000e-02/1.000000e-01

 Standard Electronic Orientation quadrupole field applied
 Nucleus-field energy     =     0.0000000201 hartrees
 Guess from superposition of atomic densities
 Warning:  Energy on first SCF cycle will be non-variational
 A restricted hybrid HF-DFT SCF calculation will be
 performed using Pulay DIIS extrapolation
 Exchange:     0.2000 Hartree-Fock + 0.0800 Slater + 0.7200 B88
 Correlation:  0.1900 VWN1RPA + 0.8100 LYP
 Using SG-1 standard quadrature grid
 SCF converges when DIIS error is below 1.0E-05
 using 16 threads for integral computing 
 -------------------------------------------------------
 OpenMP BLAS3 based DFT computing Module                
 Release: version 1.0, May 2013, Q-Chem Inc. Pittsburgh 
 -------------------------------------------------------
 ---------------------------------------
  Cycle       Energy         DIIS Error
 ---------------------------------------
    1   -5680.0192590519      2.14E-02
    2   -5662.4695064781      2.15E-03
    3   -5661.0194055920      3.33E-03
    4   -5663.2999701607      9.06E-04
    5   -5663.4480605664      3.92E-04
    6   -5663.4707801061      2.20E-04
    7   -5663.4803177122      6.84E-05
    8   -5663.4811223048      2.83E-05
    9   -5663.4812705682      1.12E-05
   10   -5663.4812989341      3.46E-06 Convergence criterion met
 ---------------------------------------
 SCF time:  CPU 1005.40 s  wall 90.59 s
 SCF   energy in the final basis set = -5663.4812989341
 Total energy in the final basis set = -5663.4812989341
 
 --------------------------------------------------------------
 
                    Orbital Energies (a.u.)
 --------------------------------------------------------------
 
 Alpha MOs
 -- Occupied --
-88.990 -88.989 -88.936 -88.928 -88.926 -88.923 -88.914 -88.914
-14.395 -14.383 -14.382 -14.373 -14.351 -14.351 -14.350 -14.336
-14.327 -14.327 -10.274 -10.274 -10.266 -10.264 -10.261 -10.257
-10.252 -10.246 -10.244 -10.243 -10.242 -10.238 -10.237 -10.236
-10.236 -10.233 -10.233 -10.232 -10.232 -10.231 -10.231 -10.229
-10.229 -10.229 -10.229 -10.227 -10.219 -10.218 -10.218 -10.215
-10.212 -10.209 -10.208 -10.207 -10.206 -10.206 -10.202 -10.194
-10.194 -10.187 -10.186 -10.185 -10.184 -10.180 -10.180 -10.179
-10.179 -10.176 -10.175 -10.174  -8.045  -8.045  -7.997  -7.986
 -7.986  -7.981  -7.973  -7.972  -6.010  -6.010  -6.005  -6.005
 -6.003  -6.003  -5.960  -5.958  -5.954  -5.950  -5.950  -5.947
 -5.946  -5.946  -5.942  -5.942  -5.942  -5.938  -5.937  -5.937
 -5.934  -5.933  -5.929  -5.929  -1.042  -1.035  -0.979  -0.969
 -0.965  -0.965  -0.950  -0.935  -0.912  -0.912  -0.905  -0.898
 -0.842  -0.841  -0.839  -0.838  -0.813  -0.812  -0.808  -0.803
 -0.803  -0.797  -0.797  -0.796  -0.780  -0.778  -0.768  -0.767
 -0.749  -0.748  -0.739  -0.736  -0.729  -0.718  -0.711  -0.708
 -0.697  -0.693  -0.681  -0.675  -0.657  -0.656  -0.648  -0.647
 -0.640  -0.639  -0.629  -0.624  -0.614  -0.610  -0.603  -0.599
 -0.596  -0.592  -0.588  -0.583  -0.578  -0.576  -0.568  -0.561
 -0.548  -0.547  -0.544  -0.539  -0.526  -0.524  -0.521  -0.517
 -0.512  -0.508  -0.500  -0.497  -0.491  -0.487  -0.482  -0.477
 -0.473  -0.471  -0.470  -0.467  -0.462  -0.453  -0.450  -0.449
 -0.449  -0.446  -0.443  -0.441  -0.435  -0.434  -0.433  -0.432
 -0.431  -0.426  -0.423  -0.421  -0.416  -0.414  -0.413  -0.412
 -0.410  -0.409  -0.405  -0.404  -0.402  -0.400  -0.398  -0.397
 -0.396  -0.396  -0.395  -0.393  -0.390  -0.389  -0.387  -0.384
 -0.381  -0.374  -0.374  -0.372  -0.364  -0.362  -0.359  -0.357
 -0.356  -0.355  -0.351  -0.350  -0.349  -0.346  -0.342  -0.342
 -0.338  -0.337  -0.331  -0.329  -0.329  -0.326  -0.321  -0.320
 -0.315  -0.314  -0.312  -0.309  -0.307  -0.304  -0.301  -0.298
 -0.296  -0.295  -0.293  -0.289  -0.289  -0.287  -0.286  -0.282
 -0.279  -0.278  -0.265  -0.263  -0.258  -0.253  -0.252  -0.249
 -0.247  -0.243  -0.238  -0.237  -0.200  -0.195
 -- Virtual --
 -0.115  -0.112  -0.075  -0.071  -0.035  -0.032  -0.031  -0.024
 -0.023  -0.021  -0.018  -0.017  -0.010  -0.008  -0.004  -0.003
 -0.001   0.005   0.010   0.016   0.022   0.030   0.033   0.035
  0.043   0.055   0.057   0.062   0.064   0.076   0.080   0.088
  0.090   0.092   0.094   0.096   0.098   0.102   0.108   0.108
  0.112   0.112   0.115   0.118   0.120   0.122   0.124   0.125
  0.128   0.131   0.132   0.135   0.137   0.142   0.144   0.147
  0.149   0.152   0.156   0.157   0.158   0.159   0.162   0.166
  0.168   0.169   0.169   0.171   0.176   0.177   0.180   0.180
  0.184   0.184   0.187   0.188   0.190   0.193   0.193   0.197
  0.202   0.203   0.208   0.209   0.210   0.215   0.219   0.222
  0.225   0.226   0.227   0.230   0.231   0.235   0.239   0.240
  0.244   0.246   0.247   0.250   0.251   0.253   0.256   0.258
  0.262   0.264   0.265   0.268   0.271   0.272   0.274   0.277
  0.278   0.280   0.284   0.285   0.289   0.296   0.297   0.302
  0.305   0.306   0.310   0.313   0.318   0.318   0.321   0.323
  0.325   0.331   0.335   0.336   0.339   0.345   0.347   0.352
  0.354   0.355   0.359   0.360   0.363   0.363   0.368   0.372
  0.372   0.376   0.384   0.387   0.389   0.392   0.395   0.401
  0.410   0.415   0.420   0.421   0.425   0.433   0.434   0.438
  0.441   0.444   0.449   0.453   0.455   0.457   0.460   0.466
  0.469   0.476   0.481   0.488   0.490   0.492   0.494   0.496
  0.498   0.501   0.502   0.504   0.506   0.509   0.513   0.516
  0.518   0.519   0.521   0.524   0.526   0.531   0.532   0.533
  0.535   0.536   0.539   0.542   0.544   0.545   0.547   0.548
  0.551   0.551   0.553   0.557   0.560   0.560   0.564   0.566
  0.567   0.569   0.571   0.573   0.576   0.579   0.580   0.582
  0.586   0.587   0.590   0.591   0.594   0.596   0.597   0.598
  0.603   0.604   0.605   0.610   0.613   0.615   0.616   0.617
  0.619   0.622   0.624   0.625   0.626   0.629   0.631   0.632
  0.635   0.636   0.638   0.641   0.642   0.645   0.646   0.650
  0.652   0.652   0.653   0.658   0.661   0.664   0.668   0.669
  0.675   0.676   0.681   0.682   0.685   0.688   0.692   0.695
  0.700   0.701   0.702   0.704   0.713   0.715   0.717   0.718
  0.720   0.723   0.729   0.729   0.732   0.735   0.739   0.741
  0.746   0.748   0.751   0.754   0.757   0.757   0.761   0.766
  0.769   0.773   0.775   0.779   0.779   0.784   0.785   0.789
  0.794   0.795   0.798   0.801   0.801   0.803   0.809   0.810
  0.812   0.814   0.816   0.819   0.821   0.823   0.826   0.827
  0.829   0.830   0.832   0.834   0.837   0.838   0.841   0.842
  0.842   0.844   0.845   0.845   0.847   0.850   0.851   0.856
  0.860   0.862   0.864   0.866   0.868   0.870   0.871   0.873
  0.875   0.878   0.882   0.883   0.883   0.886   0.888   0.890
  0.892   0.894   0.897   0.898   0.901   0.906   0.908   0.910
  0.912   0.913   0.915   0.915   0.919   0.922   0.924   0.924
  0.926   0.927   0.928   0.931   0.934   0.936   0.938   0.941
  0.943   0.944   0.946   0.951   0.955   0.956   0.957   0.962
  0.962   0.963   0.966   0.968   0.971   0.973   0.976   0.978
  0.984   0.986   0.987   0.991   0.993   0.994   0.998   1.001
  1.003   1.003   1.007   1.010   1.012   1.014   1.020   1.022
  1.025   1.027   1.030   1.032   1.036   1.038   1.041   1.045
  1.045   1.047   1.050   1.058   1.059   1.069   1.072   1.076
  1.078   1.084   1.090   1.095   1.096   1.100   1.102   1.114
  1.116   1.118   1.122   1.126   1.130   1.133   1.144   1.145
  1.146   1.154   1.154   1.158   1.159   1.164   1.169   1.174
  1.178   1.187   1.189   1.194   1.197   1.211   1.212   1.216
  1.222   1.228   1.231   1.235   1.248   1.250   1.255   1.257
  1.261   1.267   1.275   1.278   1.279   1.282   1.285   1.297
  1.299   1.305   1.309   1.311   1.313   1.325   1.328   1.329
  1.335   1.337   1.343   1.344   1.346   1.354   1.357   1.361
  1.365   1.368   1.372   1.379   1.384   1.389   1.395   1.398
  1.403   1.405   1.408   1.413   1.416   1.426   1.440   1.442
  1.449   1.450   1.457   1.462   1.465   1.471   1.473   1.475
  1.480   1.482   1.483   1.491   1.493   1.499   1.504   1.514
  1.519   1.529   1.532   1.536   1.539   1.543   1.548   1.553
  1.558   1.571   1.582   1.587   1.594   1.596   1.601   1.606
  1.613   1.621   1.621   1.627   1.632   1.632   1.640   1.642
  1.655   1.656   1.658   1.665   1.669   1.672   1.675   1.676
  1.688   1.689   1.696   1.697   1.701   1.704   1.705   1.710
  1.715   1.717   1.719   1.728   1.731   1.740   1.749   1.750
  1.753   1.755   1.759   1.762   1.764   1.764   1.767   1.770
  1.772   1.776   1.778   1.780   1.791   1.795   1.796   1.803
  1.812   1.815   1.822   1.823   1.827   1.827   1.830   1.837
  1.839   1.848   1.855   1.856   1.859   1.863   1.866   1.872
  1.875   1.877   1.879   1.879   1.881   1.888   1.891   1.894
  1.895   1.897   1.898   1.903   1.904   1.908   1.914   1.916
  1.918   1.923   1.932   1.934   1.937   1.942   1.948   1.950
  1.963   1.967   1.972   1.975   1.981   1.984   1.987   1.991
  1.994   1.996   2.000   2.006   2.008   2.017   2.029   2.030
  2.033   2.035   2.042   2.052   2.053   2.060   2.061   2.066
  2.066   2.078   2.081   2.084   2.089   2.093   2.096   2.097
  2.108   2.108   2.114   2.116   2.117   2.122   2.127   2.130
  2.134   2.137   2.137   2.144   2.146   2.148   2.150   2.154
  2.157   2.163   2.173   2.179   2.181   2.183   2.184   2.190
  2.192   2.199   2.200   2.202   2.205   2.218   2.218   2.224
  2.226   2.230   2.235   2.238   2.242   2.243   2.253   2.253
  2.257   2.259   2.262   2.265   2.270   2.271   2.274   2.274
  2.280   2.282   2.290   2.294   2.298   2.300   2.302   2.305
  2.309   2.309   2.314   2.321   2.322   2.324   2.328   2.329
  2.332   2.342   2.342   2.344   2.345   2.348   2.354   2.357
  2.361   2.363   2.368   2.372   2.376   2.382   2.383   2.388
  2.394   2.400   2.403   2.405   2.406   2.407   2.409   2.412
  2.421   2.423   2.426   2.434   2.438   2.438   2.442   2.444
  2.447   2.448   2.450   2.452   2.458   2.466   2.468   2.473
  2.478   2.481   2.482   2.483   2.486   2.488   2.500   2.506
  2.509   2.511   2.512   2.515   2.519   2.521   2.526   2.529
  2.536   2.538   2.541   2.544   2.547   2.556   2.559   2.560
  2.568   2.572   2.575   2.579   2.587   2.592   2.599   2.601
  2.603   2.610   2.612   2.614   2.617   2.623   2.632   2.634
  2.640   2.642   2.652   2.653   2.654   2.663   2.664   2.672
  2.673   2.681   2.683   2.684   2.685   2.687   2.695   2.703
  2.710   2.716   2.716   2.718   2.723   2.725   2.735   2.740
  2.741   2.746   2.760   2.760   2.771   2.783   2.784   2.785
  2.789   2.790   2.800   2.810   2.816   2.820   2.822   2.825
  2.836   2.843   2.846   2.851   2.857   2.870   2.871   2.874
  2.875   2.882   2.885   2.887   2.893   2.894   2.897   2.898
  2.901   2.914   2.915   2.917   2.922   2.923   2.934   2.940
  2.947   2.955   2.960   2.970   2.987   2.992   3.017   3.020
  3.034   3.036   3.055   3.068   3.073   3.075   3.117   3.136
  3.170   3.173   3.181   3.196   3.198   3.199   3.231   3.237
  3.246   3.247   3.255   3.265   3.272   3.272   3.278   3.282
  3.285   3.302   3.312   3.313   3.317   3.322   3.328   3.337
  3.340   3.353   3.359   3.375   3.386   3.400   3.403   3.425
  3.432   3.439   3.441   3.463   3.465   3.475   3.514   3.541
  3.545   3.547   3.568   3.580   3.584   3.585   3.590   3.598
  3.608   3.632   3.722   3.736   3.854   3.858   3.916   3.922
  3.930   3.937   3.947   3.953   3.965   3.971   3.977   3.984
  3.999   4.031   4.069   4.071   4.084   4.106   4.109   4.121
  4.127   4.138   4.145   4.148   4.151   4.156   4.161   4.183
  4.191   4.198   4.230   4.247   4.253   4.261   4.262   4.267
  4.287   4.293   4.306   4.307   4.372   4.378   4.391   4.393
  4.427   4.430   4.443   4.449   4.458   4.472   4.483   4.488
  4.504   4.514   4.532   4.535   4.588   4.597   4.651   4.675
  4.685   4.695   4.704   4.712   4.719   4.744   4.790   4.798
 --------------------------------------------------------------
 
          Ground-State Mulliken Net Atomic Charges

     Atom                 Charge (a.u.)
  ----------------------------------------
      1 C                     0.259935
      2 C                    -0.131331
      3 N                    -0.462100
      4 C                    -0.063673
      5 C                     0.080936
      6 C                     0.017854
      7 C                     0.024447
      8 C                     0.065407
      9 C                     0.262703
     10 N                    -0.519624
     11 N                    -0.568635
     12 C                     0.170626
     13 C                     0.320261
     14 S                     0.610974
     15 N                    -0.527713
     16 C                    -0.217070
     17 S                     0.345326
     18 C                    -0.139628
     19 C                    -0.197476
     20 S                     0.283924
     21 C                     0.151451
     22 C                     0.053992
     23 C                    -0.325578
     24 C                    -0.071195
     25 N                    -0.430234
     26 S                     0.239379
     27 C                     0.131965
     28 C                    -0.307125
     29 C                    -0.215110
     30 H                     0.071006
     31 H                     0.100326
     32 H                     0.100432
     33 H                     0.116271
     34 H                     0.127046
     35 H                     0.129597
     36 H                     0.118676
     37 H                     0.141729
     38 H                     0.124533
     39 C                    -0.173948
     40 H                     0.096464
     41 H                     0.118867
     42 H                     0.097218
     43 C                    -0.186846
     44 H                     0.084104
     45 C                    -0.173805
     46 H                     0.090849
     47 H                     0.092378
     48 H                     0.095566
     49 C                    -0.180829
     50 H                     0.089653
     51 C                    -0.328446
     52 H                     0.097251
     53 H                     0.104396
     54 H                     0.106632
     55 H                     0.103087
     56 C                     0.294216
     57 C                    -0.145128
     58 N                    -0.477059
     59 C                    -0.084180
     60 C                     0.088788
     61 C                     0.038527
     62 C                     0.036462
     63 C                     0.072183
     64 C                     0.217635
     65 N                    -0.526043
     66 N                    -0.548998
     67 C                     0.202481
     68 C                     0.328822
     69 S                     0.613369
     70 N                    -0.569503
     71 C                    -0.241136
     72 S                     0.366124
     73 C                    -0.141184
     74 C                    -0.216941
     75 S                     0.309133
     76 C                     0.156858
     77 C                     0.046929
     78 C                    -0.320144
     79 C                    -0.082635
     80 N                    -0.410399
     81 S                     0.277847
     82 C                     0.106649
     83 C                    -0.293518
     84 C                    -0.218564
     85 H                     0.084037
     86 H                     0.100053
     87 H                     0.108464
     88 H                     0.085088
     89 H                     0.130906
     90 H                     0.108185
     91 H                     0.127253
     92 H                     0.124592
     93 H                     0.090667
     94 C                    -0.181909
     95 H                     0.121608
     96 H                     0.087724
     97 H                     0.120086
     98 C                    -0.183791
     99 H                     0.090944
    100 C                    -0.166786
    101 H                     0.088673
    102 H                     0.094933
    103 H                     0.095874
    104 C                    -0.186047
    105 H                     0.090964
    106 C                    -0.319016
    107 H                     0.087762
    108 H                     0.104596
    109 H                     0.107695
    110 H                     0.101961
  ----------------------------------------
  Sum of atomic charges =     0.000000

 -----------------------------------------------------------------
                    Cartesian Multipole Moments
 -----------------------------------------------------------------
    Charge (ESU x 10^10)
                 0.0000
    Dipole Moment (Debye)
         X       0.2228      Y       3.0707      Z       0.7682
       Tot       3.1731
    Quadrupole Moments (Debye-Ang)
        XX    -453.7458     XY      29.6812     YY    -400.6638
        XZ      -6.4708     YZ      -6.0230     ZZ    -446.2368
    Octopole Moments (Debye-Ang^2)
       XXX      55.8579    XXY     166.8922    XYY     -81.5783
       YYY     413.2740    XXZ       0.9205    XYZ      73.4383
       YYZ      -6.9237    XZZ     -24.0996    YZZ     -27.1648
       ZZZ     -22.6643
    Hexadecapole Moments (Debye-Ang^3)
      XXXX -155056.9929   XXXY    2168.5862   XXYY  -33576.6310
      XYYY    -449.7794   YYYY  -40302.5740   XXXZ    -113.0259
      XXYZ    -521.4412   XYYZ    -253.2588   YYYZ    -143.8671
      XXZZ  -26096.6716   XYZZ     -24.3804   YYZZ   -8466.4677
      XZZZ     -28.9058   YZZZ      42.4665   ZZZZ   -3098.1582
 -----------------------------------------------------------------
Archival summary:
1\1\mn426\SP\ProcedureUnspecified\6-31G**\8105042\afmv_a\SatOct614:55:162018SatOct614:55:162018\0\\#,ProcedureUnspecified,6-31G**,\\0,1\S\C,1,1.77603\H,2,1.08243,1,123.712\C,2,1.38937,1,111.72,3,-171.288,0\H,4,1.08419,2,117.169,1,176.715,0\C,4,1.45142,2,113.963,1,2.78478,0\C,6,1.35869,4,110.281,2,0,0\C,6,1.37366,4,131.419,2,178.375,0\C,7,1.42107,6,110.978,4,-173.922,0\C,9,1.46092,7,122.292,6,171.518,0\N,10,1.33197,9,119.316,7,2.58167,0\C,11,1.3257,10,118.203,9,164.991,0\H,12,1.08874,11,117.471,10,171.449,0\C,12,1.39104,11,127.183,10,3.02026,0\C,14,1.38306,12,113.915,11,-2.49614,0\N,15,1.35302,14,123.494,12,177.279,0\C,15,1.37741,14,122.511,12,-1.78644,0\N,17,1.36443,15,112.362,14,-176.658,0\C,8,1.46154,6,122.26,4,15.8209,0\N,19,1.31735,8,115.642,6,136.015,0\C,20,1.41664,19,109.523,8,-169.496,0\H,21,1.08209,20,123.576,19,-173.808,0\C,21,1.39157,20,109.927,19,-7.85306,0\H,23,1.08153,21,123.896,20,-177.404,0\C,14,1.49931,12,123.298,11,172.975,0\C,25,1.37845,14,119.062,12,-39.8055,0\H,26,1.08579,25,119.81,14,17.332,0\C,26,1.41435,25,119.077,14,179.855,0\H,28,1.08611,26,116.776,25,-174.379,0\C,28,1.40591,26,121.495,25,-6.3605,0\N,30,1.30165,28,118.796,26,5.48075,0\C,31,1.34999,30,120.769,28,-2.45864,0\H,32,1.08903,31,112.167,30,-173.745,0\C,30,1.51458,28,123.962,26,177.745,0\H,34,1.09719,30,108.413,28,-1.98929,0\H,34,1.09758,30,111.139,28,-119.341,0\C,34,1.57695,30,114.134,28,116.738,0\H,37,1.09653,34,104.077,30,54.2389,0\H,37,1.097,34,107.81,30,-64.624,0\C,37,1.54022,34,112.029,30,178.399,0\H,40,1.09655,37,115.807,34,42.9047,0\H,40,1.09682,37,106.072,34,155.664,0\C,40,1.54416,37,114.46,34,-86.1849,0\H,43,1.09667,40,113.563,37,60.6944,0\H,43,1.09695,40,103.184,37,-60.0901,0\C,43,1.55786,40,114.106,37,-178.973,0\H,46,1.09624,43,112.883,40,60.4839,0\H,46,1.09687,43,108.034,40,-51.7096,0\C,46,1.57501,43,114.04,40,-179.767,0\H,49,1.09678,46,110.123,43,62.6587,0\H,49,1.09684,46,103.072,43,-48.8095,0\H,49,1.09716,46,111.465,43,-175.984,0\S,16,1.6038,15,106.781,14,171.27,0\S,23,1.76174,21,116.671,20,9.90507,0\S,9,1.77683,7,110.333,6,-13.7964,0\H,3,2.38068,2,113.348,1,19.6425,0\C,56,1.08176,3,116.509,2,-90.6779,0\C,57,1.4056,56,126.004,3,94.5803,0\H,58,1.08471,57,125.13,56,-10.3701,0\C,58,1.43836,57,112.644,56,173.61,0\C,60,1.34472,58,134.361,57,164.81,0\C,61,1.36254,60,122.421,58,10.5963,0\N,62,1.28475,61,112.719,60,-162.235,0\C,63,1.37885,62,111.436,61,-167.247,0\H,64,1.08202,63,118.261,62,170.721,0\C,64,1.33822,63,116.13,62,-7.27982,0\H,66,1.0815,64,132.147,63,170.725,0\C,60,1.41843,58,108.844,57,-8.12746,0\C,68,1.39804,60,114.276,58,169.204,0\C,69,1.49466,68,126.411,60,178.67,0\N,70,1.35109,69,116.23,68,0.206017,0\C,71,1.32633,70,120.028,69,175.57,0\H,72,1.08918,71,112.5,70,-170.598,0\C,72,1.35299,71,123.725,70,1.55174,0\C,74,1.37134,72,120.598,71,4.84391,0\N,75,1.3507,74,127.116,72,-178.858,0\C,75,1.44577,74,118.5,72,-9.48698,0\N,77,1.36851,75,113.81,74,-172.696,0\C,74,1.48651,72,117.523,71,-176.704,0\C,79,1.36148,74,120.081,72,59.8351,0\H,80,1.08642,79,124.454,74,-9.83147,0\C,80,1.39863,79,118.85,74,170.451,0\H,82,1.08616,80,114.265,79,175.924,0\C,82,1.39762,80,126.988,79,7.8208,0\N,84,1.34757,82,115.585,80,-9.87142,0\C,85,1.35077,84,117.707,82,7.99269,0\H,86,1.08917,85,110.839,84,175.572,0\C,84,1.5492,82,128.969,80,173.303,0\H,88,1.09713,84,115.105,82,105.773,0\H,88,1.09728,84,101.521,82,-10.8728,0\C,88,1.57466,84,109.242,82,-124.36,0\H,91,1.09671,88,110.134,84,-79.4259,0\H,91,1.09798,88,110.374,84,44.1703,0\C,91,1.55877,88,113.503,84,160.094,0\H,94,1.0969,91,114.381,88,-170.191,0\H,94,1.09691,91,107.853,88,-64.3359,0\C,94,1.55154,91,117.34,88,56.4269,0\H,97,1.09683,94,110.567,91,72.0768,0\H,97,1.09694,94,105.796,91,-39.885,0\C,97,1.56848,94,109.605,91,-163.045,0\H,100,1.09687,97,106.48,94,169.705,0\H,100,1.09735,97,112.848,94,56.8966,0\S,78,1.58314,77,106.569,75,0.777387,0\C,100,1.60183,97,116.337,94,-63.2851,0\H,104,1.09679,100,108.271,97,48.2216,0\H,104,1.09713,100,115.982,97,169.179,0\H,104,1.09743,100,114.429,97,-69.7687,0\S,68,1.74794,60,117.581,58,3.48953,0\S,69,1.76464,68,107.84,60,6.45283,0\S,62,1.77409,61,129.771,60,27.4558,0\\\@

 Total job time:  94.33s(wall), 1017.52s(cpu) 
 Sat Oct  6 14:55:16 2018

        *************************************************************
        *                                                           *
        *  Thank you very much for using Q-Chem.  Have a nice day.  *
        *                                                           *
        *************************************************************


