
Running Job 1 of 1 ./10/41.qcin
qchem ./10/41.qcin_30356.0 /tmpu/cab_g/afmv_a/scratch_qchem/qchem30356/ 1
/tmpu/appuserlic/qchem4.4/serial-multicore/exe/qcprog.exe_s ./10/41.qcin_30356.0 /tmpu/cab_g/afmv_a/scratch_qchem/qchem30356/
Check license passed

                  Welcome to Q-Chem
     A Quantum Leap Into The Future Of Chemistry


 Q-Chem 4.4, Q-Chem, Inc., Pleasanton, CA (2016)

 Y. Shao,  Z. Gan,  E. Epifanovsky,  A. T. B. Gilbert,  M. Wormit,  
 J. Kussmann,  A. W. Lange,  A. Behn,  J. Deng,  X. Feng,  D. Ghosh,  
 M. Goldey,  P. R. Horn,  L. D. Jacobson,  I. Kaliman,  F. Rob,  
 R. Z. Khaliullin,  T. Kus,  A. Landau,  J. Liu,  E. I. Proynov,  Y. M. Rhee,  
 R. M. Richard,  M. A. Rohrdanz,  R. P. Steele,  E. J. Sundstrom,  
 H. L. Woodcock III,  P. M. Zimmerman,  D. Zuev,  B. Albrecht,  E. Alguire,  
 B. Austin,  S. A. Baeppler,  G. J. O. Beran,  Y. A. Bernard,  E. Berquist,  
 K. Brandhorst,  K. B. Bravaya,  S. T. Brown,  D. Casanova,  C.-M. Chang,  
 Y. Chen,  S. H. Chien,  K. D. Closser,  M. P. Coons,  D. L. Crittenden,  
 S. Dasgupta,  M. Diedenhofen,  R. A. DiStasio Jr.,  H. Do,  A. D. Dutoi,  
 R. G. Edgar,  P.-T. Fang,  S. Fatehi,  Q. Feng,  L. Fusti-Molnar,  
 A. Ghysels,  A. Golubeva-Zadorozhnaya,  J. Gomes,  A. Gunina,  
 M. W. D. Hanson-Heine,  P. H. P. Harbach,  A. W. Hauser,  J. E. Herr,  
 E. G. Hohenstein,  Z. C. Holden,  K. Hui,  T.-C. Jagau,  H. Ji,  B. Kaduk,  
 K. Khistyaev,  Jaehoon Kim,  Jihan Kim,  R. A. King,  P. Klunzinger,  
 K. Koh,  D. Kosenkov,  T. Kowalczyk,  C. M. Krauter,  A. Kunitsa,  
 K. U. Lao,  A. Laurent,  K. V. Lawler,  J. Lee,  D. Lefrancois,  S. Lehtola,  
 S. V. Levchenko,  C. Y. Lin,  Y.-S. Lin,  F. Liu,  E. Livshits,  
 R. C. Lochan,  A. Luenser,  P. Manohar,  S. F. Manzer,  S.-P. Mao,  Y. Mao,  
 N. Mardirossian,  A. V. Marenich,  L. A. Martinez-Martinez,  S. A. Maurer,  
 N. J. Mayhall,  J.-M. Mewes,  A. F. Morrison,  K. Nanda,  T. S. Nguyen-Beck,  
 C. M. Oana,  R. Olivares-Amaya,  D. P. O'Neill,  J. A. Parkhill,  
 T. M. Perrine,  R. Peverati,  P. A. Pieniazek,  F. Plasser,  A. Prociuk,  
 D. R. Rehn,  E. Rosta,  N. J. Russ,  N. Sergueev,  S. M. Sharada,  
 S. Sharma,  D. W. Small,  A. Sodt,  T. Stauch,  T. Stein,  D. Stuck,  
 Y.-C. Su,  A. J. W. Thom,  T. Tsuchimochi,  L. Vogt,  O. Vydrov,  T. Wang,  
 M. A. Watson,  J. Wenzel,  A. White,  C. F. Williams,  V. Vanovschi,  
 K. Yao,  S. Yeganeh,  S. R. Yost,  Z.-Q. You,  I. Y. Zhang,  X. Zhang,  
 Y. Zhao,  B. R. Brooks,  G. K. L. Chan,  D. M. Chipman,  C. J. Cramer,  
 W. A. Goddard III,  M. S. Gordon,  W. J. Hehre,  A. Klamt,  
 H. F. Schaefer III,  M. W. Schmidt,  C. D. Sherrill,  D. G. Truhlar,  
 A. Warshel,  X. Xu,  A. Aspuru-Guzik,  R. Baer,  A. T. Bell,  N. A. Besley,  
 J.-D. Chai,  A. Dreuw,  B. D. Dunietz,  T. R. Furlani,  S. R. Gwaltney,  
 C.-P. Hsu,  Y. Jung,  J. Kong,  D. S. Lambrecht,  W. Liang,  C. Ochsenfeld,  
 V. A. Rassolov,  L. V. Slipchenko,  J. E. Subotnik,  T. Van Voorhis,  
 J. M. Herbert,  A. I. Krylov,  P. M. W. Gill,  M. Head-Gordon

 Contributors to earlier versions of Q-Chem not listed above: 
 R. D. Adamson,  J. Baker,  E. F. C. Byrd,  A. K. Chakraborty,  C.-L. Cheng,  
 H. Dachsel,  R. J. Doerksen,  G. Hawkins,  A. Heyden,  S. Hirata,  
 G. Kedziora,  F. J. Keil,  C. Kelley,  P. P. Korambath,  W. Kurlancheek,  
 A. M. Lee,  M. S. Lee,  D. Liotard,  I. Lotan,  P. E. Maslen,  N. Nair,  
 D. Neuhauser,  R. Olson,  B. Peters,  J. Ritchie,  N. E. Schultz,  
 N. Shenvi,  A. C. Simmonett,  K. S. Thanthiriwatte,  Q. Wu,  W. Zhang

 Please cite Q-Chem as follows:
 Y. Shao et al., Mol. Phys. 113, 184-215 (2015)
 DOI: 10.1080/00268976.2014.952696

 Q-Chem 4.4.2 for Intel X86 Linux

 Parts of Q-Chem use Armadillo 5.200.1 (Boston Tea Smuggler).
 http://arma.sourceforge.net/

 Q-Chem begins on Sat Oct  6 15:21:52 2018  

Host: 
0

     Scratch files written to /tmpu/cab_g/afmv_a/scratch_qchem/qchem30356//
 Dec716 11556_ 22328  22283 4050   
Processing $rem in /tmpu/appuserlic/qchem4.4/serial-multicore/config/preferences.
 MEM_TOTAL  2000 
FILE_GEOM_ORG=        593

Checking the input file for inconsistencies... 	...done.

--------------------------------------------------------------
User input:
--------------------------------------------------------------
$comment
SP
$end

$rem
MEM_STATIC 5000
MEM_TOTAL 20000
JOBTYPE SP
EXCHANGE B3LYP
BASIS 6-31g(d,p)
$end

$molecule
0 1
C           4.464000     13.625000     -0.728000
C           5.531000     14.471000     -0.757000
N           4.503000     12.507000     -1.471000
C           6.666000     14.200000     -1.511000
C           5.657000     12.203000     -2.164000
C           6.766000     13.002000     -2.324000
C           7.915000     12.550000     -3.140000
C           8.656000     13.553000     -3.763000
C           8.297000     11.199000     -3.407000
N           9.721000     13.297000     -4.599000
N           7.843000     10.111000     -2.802000
C           9.326000     10.971000     -4.282000
C          10.078000     12.015000     -4.868000
S           8.674000      8.875000     -3.353000
N           9.632000      9.607000     -4.466000
C          11.193000     11.807000     -5.809000
S          11.849000     10.268000     -6.390000
C          12.025000     12.787000     -6.294000
C          13.223000     11.013000     -7.208000
S          11.891000     14.536000     -6.131000
C          13.095000     12.369000     -7.080000
C          14.443000     10.355000     -7.501000
C          13.581000     14.616000     -6.811000
C          13.983000     13.435000     -7.324000
N          14.639000      9.251000     -6.806000
S          15.719000     10.837000     -8.560000
C          15.929000      8.800000     -7.010000
C          16.588000      9.469000     -7.999000
C           3.227000     13.790000      0.146000
H           5.518000     15.390000     -0.178000
H           7.478000     14.918000     -1.452000
H           5.522000     11.272000     -2.712000
H           8.302000     14.582000     -3.802000
H          14.055000     15.570000     -7.000000
H          14.937000     13.363000     -7.833000
H          16.360000      7.993000     -6.433000
H          17.530000      9.149000     -8.426000
H           3.283000     13.033000      0.938000
C           1.837000     13.800000     -0.549000
H           3.345000     14.778000      0.610000
H           1.922000     13.202000     -1.465000
H           1.549000     14.802000     -0.891000
C           0.711000     13.211000      0.300000
H           0.973000     12.305000      0.860000
C          -0.580000     12.886000     -0.531000
H           0.486000     13.993000      1.035000
H          -0.438000     12.114000     -1.298000
H          -0.817000     13.716000     -1.208000
C          -1.879000     12.639000      0.223000
H          -1.722000     12.069000      1.148000
C          -2.999000     12.040000     -0.678000
H          -2.207000     13.597000      0.643000
H          -3.485000     12.787000     -1.317000
H          -3.866000     11.739000     -0.077000
H          -2.734000     11.137000     -1.241000
C         -10.681000      9.504000     -0.146000
C          -9.752000     10.215000     -0.925000
N         -10.291000      8.507000      0.643000
C          -8.416000      9.732000     -0.884000
C          -9.013000      8.162000      0.731000
C          -7.946000      8.677000     -0.044000
C          -6.493000      8.272000     -0.059000
C          -5.486000      9.047000     -0.800000
C          -5.982000      7.068000      0.493000
N          -4.221000      8.691000     -0.830000
N          -6.772000      6.207000      1.159000
C          -4.609000      6.681000      0.390000
C          -3.711000      7.574000     -0.251000
S          -5.753000      5.006000      1.669000
N          -4.305000      5.553000      1.090000
C          -2.301000      7.446000     -0.214000
S          -1.174000      8.794000      0.044000
C          -1.595000      6.299000     -0.370000
C           0.267000      7.760000     -0.225000
S          -2.141000      4.686000     -0.842000
C          -0.203000      6.476000     -0.468000
C           1.613000      8.213000     -0.343000
C          -0.506000      4.265000     -1.008000
C           0.447000      5.240000     -0.737000
N           1.922000      9.362000      0.202000
S           2.948000      7.191000     -0.953000
C           3.271000      9.630000     -0.086000
C           3.984000      8.562000     -0.673000
C         -12.139000      9.930000     -0.071000
H         -10.062000     11.078000     -1.507000
H          -7.761000     10.257000     -1.574000
H          -8.769000      7.311000      1.365000
H          -5.675000      9.950000     -1.378000
H          -0.368000      3.247000     -1.349000
H           1.499000      5.028000     -0.885000
H           3.692000     10.600000      0.140000
H           5.009000      8.530000     -1.017000
H         -12.110000     10.958000      0.312000
C         -13.114000      9.107000      0.806000
H         -12.536000     10.003000     -1.091000
H         -12.557000      8.821000      1.706000
H         -13.347000      8.191000      0.250000
C         -14.473000      9.895000      1.065000
H         -14.283000     10.901000      1.459000
C         -15.477000      9.036000      1.870000
H         -14.965000     10.119000      0.110000
H         -15.116000      8.787000      2.875000
H         -15.504000      8.100000      1.298000
C         -16.789000      9.676000      1.798000
H         -16.892000     10.571000      2.423000
C         -17.947000      8.834000      2.275000
H         -17.035000      9.994000      0.777000
H         -17.982000      7.789000      1.943000
H         -18.784000      9.345000      1.783000
H         -18.020000      8.903000      3.368000
$end

--------------------------------------------------------------
 ----------------------------------------------------------------
             Standard Nuclear Orientation (Angstroms)
    I     Atom           X                Y                Z
 ----------------------------------------------------------------
    1      C      -2.7298882696    -3.3105777134     2.1695004672
    2      C      -3.8651445161    -3.9944492271     2.4834415568
    3      N      -2.8275261348    -2.2046707922     1.4139008848
    4      C      -5.1205443541    -3.5690843758     2.0672469027
    5      C      -4.0790509473    -1.7434212034     1.0599016468
    6      C      -5.2852000209    -2.3758036742     1.2578380575
    7      C      -6.5470479972    -1.7698173882     0.7773369587
    8      C      -7.5640027568    -2.6607816446     0.4379187642
    9      C      -6.8025168717    -0.3801231556     0.5630950532
   10      N      -8.7784524440    -2.2609984172    -0.0758344142
   11      N      -6.0514513358     0.6361043290     0.9619274245
   12      C      -7.9977513616    -0.0135443756     0.0031981768
   13      C      -9.0201320968    -0.9431973582    -0.2956646080
   14      S      -6.8296030668     1.9743002087     0.6075693132
   15      N      -8.1556473556     1.3787523673    -0.1535392946
   16      C     -10.3185193876    -0.5845710584    -0.8936174659
   17      S     -10.8981322738     1.0280370055    -1.3407887243
   18      C     -11.3792650464    -1.4385607758    -1.0762898770
   19      C     -12.5363246937     0.4818790073    -1.7014298707
   20      S     -11.4427499600    -3.1872594316    -0.8724549510
   21      C     -12.5622073784    -0.8773433412    -1.5486270767
   22      C     -13.6881956493     1.3061777153    -1.6708040368
   23      C     -13.2511304441    -3.0287697244    -1.0443300143
   24      C     -13.6188978294    -1.8064204159    -1.4803842748
   25      N     -13.5258989582     2.4324982321    -1.0034818675
   26      S     -15.2665964150     1.0042158002    -2.3028254167
   27      C     -14.7468245666     3.0627530390    -0.8577542551
   28      C     -15.7452461368     2.4875309023    -1.5872999092
   29      C      -1.3290690862    -3.6447516876     2.6667965263
   30      H      -3.8120353668    -4.9010241730     3.0794887745
   31      H      -5.9713896390    -4.1622698785     2.3874691074
   32      H      -3.9812714697    -0.8460157115     0.4513027996
   33      H      -7.3788442019    -3.7302932510     0.3510900055
   34      H     -13.8841647990    -3.9061404092    -1.0454194667
   35      H     -14.6595838180    -1.6020329559    -1.7030486848
   36      H     -14.8814519139     3.9280304479    -0.2228452198
   37      H     -16.7174940276     2.9362684358    -1.7468670268
   38      H      -1.0533016832    -2.8811656895     3.4045890194
   39      C      -0.2102803212    -3.8602994206     1.6098784244
   40      H      -1.4424456153    -4.6016903389     3.1928936468
   41      H      -0.4714909647    -3.2637495651     0.7268256120
   42      H      -0.1706285014    -4.8960564353     1.2499518489
   43      C       1.1803384266    -3.4325760804     2.0776713729
   44      H       1.2146081146    -2.4937878617     2.6438712218
   45      C       2.2117847874    -3.3034802349     0.9019504589
   46      H       1.4977101411    -4.2328194944     2.7568323797
   47      H       1.9626571338    -2.5253352306     0.1692412639
   48      H       2.1306817243    -4.1644146355     0.2269599027
   49      C       3.6930125363    -3.2398510564     1.2466846802
   50      H       3.8855969942    -2.6456998497     2.1494967150
   51      C       4.5793925130    -2.8155787209     0.0386592159
   52      H       3.9942504027    -4.2316356498     1.6035699115
   53      H       4.7566231593    -3.6298999713    -0.6740793050
   54      H       5.6144034980    -2.6375946549     0.3557789617
   55      H       4.2896146315    -1.8884462396    -0.4703173469
   56      C      12.3630831577    -1.4071063194    -1.7383634183
   57      C      11.1628085306    -1.9833341697    -2.1885914539
   58      N      12.3536764757    -0.3579905765    -0.9211133511
   59      C       9.9725689390    -1.3128050482    -1.7966904312
   60      C      11.2131734310     0.1680151872    -0.4937683596
   61      C       9.9097007750    -0.1943694000    -0.9108719989
   62      C       8.5818905745     0.4153545761    -0.5358843400
   63      C       7.3097945790    -0.2126730556    -0.9246105571
   64      C       8.4180614799     1.6847956805     0.0782168815
   65      N       6.1494084119     0.3213891280    -0.6145419722
   66      N       9.4745295352     2.4285408791     0.4519752632
   67      C       7.1385675549     2.2644817205     0.3472269017
   68      C       5.9824432327     1.5048138430     0.0293979108
   69      S       8.8163619979     3.7677689868     1.1690147100
   70      N       7.2030886358     3.4301325300     1.0485793240
   71      C       4.6727185674     1.8346645609     0.4556288401
   72      S       3.4944517617     0.6649977297     1.0859968584
   73      C       4.1139193602     3.0700105739     0.4489449659
   74      C       2.1907635112     1.8933659051     1.1834985064
   75      S       4.7158020430     4.5837739635    -0.2358372158
   76      C       2.7413479204     3.0943591926     0.7556236043
   77      C       0.8186918529     1.6378145141     1.4715294961
   78      C       3.1743656670     5.2342929828     0.0449133931
   79      C       2.2154646279     4.4088006000     0.6205401151
   80      N       0.5254218327     0.5496976048     2.1368875102
   81      S      -0.4834722301     2.8362865902     1.2129905562
   82      C      -0.8729711062     0.4762661291     2.2538234192
   83      C      -1.5722427489     1.6309444159     1.8399403152
   84      C      13.7099286368    -2.0378433172    -2.0562361835
   85      H      11.1736223962    -2.8866567161    -2.7914881594
   86      H       9.0828810598    -1.7436782086    -2.2478597978
   87      H      11.2782000351     1.0503884315     0.1409615030
   88      H       7.2015355568    -1.1381346966    -1.4876511730
   89      H       3.0840819754     6.2587533408    -0.2926941159
   90      H       1.2039144830     4.7687591350     0.7645823225
   91      H      -1.3393462651    -0.4211939628     2.6362846520
   92      H      -2.6385761333     1.8073055377     1.7973390482
   93      H      13.6524229036    -3.0478284101    -1.6308690447
   94      C      14.9970251642    -1.3566079615    -1.5305139002
   95      H      13.7852871867    -2.1754883861    -3.1419216463
   96      H      14.7644810237    -0.9861383766    -0.5251679352
   97      H      15.1834568238    -0.4882121687    -2.1736414019
   98      C      16.2534229488    -2.3298264497    -1.6265158848
   99      H      16.0493038371    -3.2947854174    -1.1463476029
  100      C      17.5523457781    -1.6177244092    -1.1797137279
  101      H      16.4169985380    -2.6300369734    -2.6692918281
  102      H      17.5307214725    -1.3112186271    -0.1271294819
  103      H      17.5414890658    -0.7000257475    -1.7811456012
  104      C      18.6896715715    -2.4404128131    -1.5869014362
  105      H      18.8445575203    -3.3358150021    -0.9732857073
  106      C      20.0386911780    -1.7699558900    -1.4969535872
  107      H      18.5882694300    -2.7987806821    -2.6190695795
  108      H      20.1187629069    -0.7435975022    -1.8759667506
  109      H      20.6229060269    -2.4000531032    -2.1791738686
  110      H      20.4108137150    -1.8398644694    -0.4667222501
 ----------------------------------------------------------------
 Molecular Point Group                 C1    NOp =  1
 Largest Abelian Subgroup              C1    NOp =  1
 Nuclear Repulsion Energy = 10478.1861085398 hartrees
 There are      270 alpha and      270 beta electrons
 Requested basis set is 6-31G(d,p)
 There are 406 shells and 1262 basis functions

 Total QAlloc Memory Limit  20000 MB
 Mega-Array Size      4888 MB
 MEM_STATIC part      5000 MB
 A cutoff of  1.0D-08 yielded  13344 shell pairs
 There are    137341 function pairs
 
 -------------------------------------------------------
 OpenMP Integral Computing Module                       
 Release: version 1.0, May 2013, Q-Chem Inc. Pittsburgh 
 -------------------------------------------------------
 Integral Job Info:
 Integral job number is                      11
 Integral operator is                         1
 short-range coefficients                     0
 long-range coefficients              100000000
 Omega coefficients                           0
 if combine SR and LR in K                    0
 Integral screening is                        0
 Integral computing path is                   2
 max size of driver memory is            800000
 size of driver memory is                593474
 size of scratch memory is             15166112
 max col of scratch BK array               1296
 max len of scratch array in speh3          155
 max len of scratch index in speh4           18
 max int batch size is                      520
 min int batch size is                       52
 fixed nKL is                                52
 max L of basis functions is                  2
 order of int derivative is                   0
 number of shells is                        406
 number of basis is                        1262
 number of cartesian basis is              1262
 number of contracted shell pairs         13344
 number of primitive shell pairs          42909
 maxK2 (contraction) of shell pair           36
 max number of K2 of shell pair               1
 max number of CS2 of shell pair           1315
 max number of PS2 of shell pair           7704
 mem total for path MDJ                  280168
 -------------------------------------------------------
 Smallest overlap matrix eigenvalue = 3.86E-04

 Scale SEOQF with 1.000000e-03/1.000000e-02/1.000000e-01

 Standard Electronic Orientation quadrupole field applied
 Nucleus-field energy     =    -0.0000000640 hartrees
 Guess from superposition of atomic densities
 Warning:  Energy on first SCF cycle will be non-variational
 A restricted hybrid HF-DFT SCF calculation will be
 performed using Pulay DIIS extrapolation
 Exchange:     0.2000 Hartree-Fock + 0.0800 Slater + 0.7200 B88
 Correlation:  0.1900 VWN1RPA + 0.8100 LYP
 Using SG-1 standard quadrature grid
 SCF converges when DIIS error is below 1.0E-05
 using 16 threads for integral computing 
 -------------------------------------------------------
 OpenMP BLAS3 based DFT computing Module                
 Release: version 1.0, May 2013, Q-Chem Inc. Pittsburgh 
 -------------------------------------------------------
 ---------------------------------------
  Cycle       Energy         DIIS Error
 ---------------------------------------
    1   -5680.2909146397      2.16E-02
    2   -5662.4968734860      2.16E-03
    3   -5660.9399663133      3.36E-03
    4   -5663.2655318495      1.04E-03
    5   -5663.4811681644      4.13E-04
    6   -5663.5038437607      2.54E-04
    7   -5663.5154145209      9.63E-05
    8   -5663.5170936266      3.65E-05
    9   -5663.5173526282      1.47E-05
   10   -5663.5173921014      5.50E-06 Convergence criterion met
 ---------------------------------------
 SCF time:  CPU 1023.81 s  wall 91.45 s
 SCF   energy in the final basis set = -5663.5173921014
 Total energy in the final basis set = -5663.5173921014
 
 --------------------------------------------------------------
 
                    Orbital Energies (a.u.)
 --------------------------------------------------------------
 
 Alpha MOs
 -- Occupied --
-88.995 -88.988 -88.935 -88.919 -88.919 -88.917 -88.910 -88.906
-14.393 -14.390 -14.385 -14.384 -14.353 -14.344 -14.343 -14.338
-14.328 -14.322 -10.268 -10.268 -10.261 -10.261 -10.259 -10.258
-10.258 -10.257 -10.244 -10.243 -10.239 -10.238 -10.236 -10.234
-10.231 -10.230 -10.230 -10.229 -10.228 -10.227 -10.227 -10.225
-10.225 -10.223 -10.223 -10.222 -10.222 -10.220 -10.219 -10.219
-10.219 -10.213 -10.207 -10.205 -10.201 -10.199 -10.199 -10.197
-10.187 -10.183 -10.176 -10.174 -10.174 -10.169 -10.169 -10.168
-10.167 -10.164 -10.162 -10.159  -8.051  -8.043  -7.997  -7.980
 -7.978  -7.975  -7.971  -7.965  -6.016  -6.011  -6.009  -6.008
 -6.002  -6.001  -5.961  -5.957  -5.954  -5.944  -5.943  -5.940
 -5.940  -5.939  -5.937  -5.936  -5.936  -5.935  -5.932  -5.932
 -5.930  -5.928  -5.926  -5.921  -1.050  -1.030  -0.978  -0.958
 -0.956  -0.954  -0.941  -0.936  -0.915  -0.913  -0.905  -0.903
 -0.846  -0.842  -0.838  -0.823  -0.817  -0.813  -0.810  -0.805
 -0.803  -0.798  -0.794  -0.791  -0.786  -0.782  -0.768  -0.762
 -0.750  -0.745  -0.742  -0.739  -0.722  -0.719  -0.711  -0.709
 -0.694  -0.693  -0.678  -0.673  -0.657  -0.651  -0.646  -0.641
 -0.640  -0.632  -0.624  -0.624  -0.615  -0.602  -0.601  -0.596
 -0.593  -0.590  -0.580  -0.575  -0.574  -0.573  -0.569  -0.563
 -0.548  -0.544  -0.544  -0.537  -0.528  -0.524  -0.522  -0.511
 -0.510  -0.505  -0.503  -0.498  -0.487  -0.479  -0.476  -0.475
 -0.474  -0.473  -0.467  -0.466  -0.456  -0.452  -0.451  -0.451
 -0.448  -0.446  -0.438  -0.435  -0.434  -0.434  -0.429  -0.429
 -0.428  -0.426  -0.424  -0.423  -0.418  -0.417  -0.415  -0.411
 -0.410  -0.405  -0.402  -0.402  -0.399  -0.397  -0.396  -0.395
 -0.393  -0.392  -0.391  -0.389  -0.386  -0.384  -0.383  -0.379
 -0.377  -0.371  -0.369  -0.367  -0.362  -0.360  -0.358  -0.354
 -0.353  -0.351  -0.348  -0.347  -0.346  -0.342  -0.336  -0.335
 -0.333  -0.332  -0.331  -0.330  -0.327  -0.322  -0.321  -0.316
 -0.316  -0.312  -0.307  -0.305  -0.301  -0.300  -0.299  -0.297
 -0.297  -0.292  -0.292  -0.290  -0.286  -0.284  -0.284  -0.277
 -0.277  -0.275  -0.267  -0.263  -0.254  -0.252  -0.247  -0.243
 -0.241  -0.239  -0.236  -0.226  -0.199  -0.188
 -- Virtual --
 -0.117  -0.114  -0.073  -0.071  -0.043  -0.039  -0.027  -0.021
 -0.020  -0.013  -0.011  -0.002  -0.001  -0.001   0.003   0.006
  0.010   0.011   0.012   0.020   0.024   0.028   0.037   0.040
  0.051   0.052   0.054   0.060   0.068   0.069   0.086   0.092
  0.095   0.095   0.098   0.106   0.106   0.109   0.110   0.111
  0.111   0.116   0.117   0.119   0.122   0.124   0.125   0.128
  0.130   0.132   0.135   0.135   0.143   0.144   0.144   0.149
  0.150   0.158   0.159   0.160   0.162   0.167   0.168   0.169
  0.172   0.175   0.177   0.180   0.181   0.184   0.186   0.190
  0.192   0.194   0.196   0.199   0.201   0.202   0.204   0.207
  0.208   0.212   0.213   0.213   0.217   0.217   0.221   0.223
  0.226   0.227   0.228   0.231   0.233   0.233   0.235   0.241
  0.242   0.243   0.243   0.250   0.253   0.256   0.260   0.262
  0.265   0.265   0.267   0.276   0.278   0.280   0.285   0.287
  0.291   0.293   0.296   0.297   0.301   0.305   0.311   0.313
  0.315   0.317   0.319   0.322   0.326   0.328   0.330   0.333
  0.334   0.337   0.339   0.343   0.345   0.348   0.352   0.354
  0.356   0.358   0.359   0.362   0.365   0.367   0.368   0.373
  0.379   0.379   0.384   0.387   0.389   0.393   0.395   0.400
  0.403   0.407   0.411   0.420   0.423   0.426   0.430   0.433
  0.436   0.453   0.455   0.459   0.460   0.465   0.469   0.475
  0.475   0.485   0.488   0.489   0.491   0.493   0.495   0.497
  0.500   0.501   0.505   0.507   0.509   0.518   0.520   0.521
  0.522   0.525   0.527   0.531   0.533   0.537   0.538   0.539
  0.541   0.541   0.546   0.547   0.549   0.550   0.553   0.556
  0.558   0.558   0.560   0.560   0.563   0.564   0.565   0.566
  0.568   0.570   0.572   0.576   0.578   0.579   0.581   0.584
  0.588   0.590   0.594   0.595   0.595   0.596   0.596   0.600
  0.601   0.602   0.602   0.606   0.608   0.615   0.617   0.619
  0.620   0.622   0.624   0.625   0.628   0.629   0.631   0.633
  0.634   0.637   0.643   0.645   0.648   0.650   0.651   0.652
  0.654   0.655   0.659   0.662   0.664   0.668   0.668   0.674
  0.680   0.684   0.687   0.689   0.694   0.699   0.699   0.703
  0.705   0.711   0.714   0.717   0.719   0.724   0.724   0.727
  0.732   0.736   0.737   0.739   0.740   0.742   0.744   0.749
  0.754   0.755   0.759   0.760   0.763   0.770   0.772   0.773
  0.776   0.778   0.780   0.781   0.787   0.790   0.791   0.792
  0.794   0.797   0.798   0.799   0.803   0.807   0.809   0.811
  0.811   0.814   0.817   0.818   0.821   0.821   0.824   0.828
  0.830   0.831   0.831   0.833   0.836   0.837   0.838   0.842
  0.845   0.846   0.847   0.848   0.848   0.852   0.852   0.856
  0.859   0.860   0.862   0.864   0.867   0.868   0.873   0.877
  0.878   0.880   0.884   0.885   0.885   0.888   0.890   0.897
  0.901   0.904   0.908   0.911   0.911   0.912   0.913   0.915
  0.917   0.919   0.921   0.923   0.927   0.928   0.930   0.931
  0.934   0.938   0.941   0.944   0.946   0.949   0.950   0.953
  0.953   0.956   0.956   0.959   0.961   0.967   0.967   0.973
  0.973   0.974   0.976   0.978   0.979   0.985   0.988   0.991
  0.995   0.998   1.002   1.007   1.009   1.009   1.011   1.012
  1.012   1.015   1.017   1.021   1.021   1.025   1.029   1.030
  1.035   1.037   1.042   1.044   1.046   1.049   1.053   1.058
  1.061   1.061   1.065   1.070   1.073   1.079   1.080   1.087
  1.089   1.095   1.099   1.101   1.104   1.107   1.112   1.121
  1.126   1.127   1.128   1.130   1.133   1.139   1.144   1.147
  1.158   1.159   1.163   1.168   1.171   1.175   1.176   1.188
  1.189   1.195   1.199   1.207   1.208   1.212   1.221   1.224
  1.229   1.237   1.240   1.243   1.244   1.256   1.263   1.264
  1.266   1.270   1.277   1.282   1.284   1.291   1.293   1.297
  1.301   1.309   1.317   1.319   1.319   1.321   1.331   1.332
  1.339   1.341   1.345   1.348   1.351   1.352   1.360   1.376
  1.377   1.383   1.385   1.387   1.390   1.394   1.396   1.411
  1.413   1.419   1.424   1.426   1.429   1.436   1.439   1.446
  1.450   1.455   1.459   1.461   1.465   1.470   1.472   1.479
  1.483   1.484   1.485   1.491   1.494   1.496   1.510   1.513
  1.519   1.526   1.529   1.534   1.539   1.542   1.557   1.559
  1.570   1.572   1.574   1.582   1.587   1.597   1.598   1.621
  1.622   1.626   1.626   1.631   1.634   1.643   1.650   1.654
  1.657   1.661   1.665   1.666   1.677   1.682   1.689   1.691
  1.692   1.695   1.699   1.705   1.706   1.706   1.707   1.712
  1.713   1.723   1.724   1.727   1.729   1.731   1.734   1.743
  1.746   1.755   1.756   1.762   1.768   1.770   1.775   1.779
  1.783   1.788   1.792   1.793   1.796   1.806   1.810   1.819
  1.823   1.826   1.831   1.838   1.843   1.845   1.845   1.849
  1.853   1.854   1.857   1.859   1.863   1.866   1.870   1.877
  1.880   1.883   1.886   1.887   1.890   1.892   1.894   1.902
  1.903   1.907   1.909   1.912   1.916   1.917   1.927   1.928
  1.929   1.931   1.934   1.939   1.944   1.947   1.950   1.951
  1.954   1.960   1.968   1.973   1.977   1.979   1.986   1.988
  1.993   1.997   2.008   2.012   2.014   2.028   2.029   2.036
  2.037   2.049   2.051   2.051   2.056   2.056   2.065   2.073
  2.080   2.081   2.087   2.088   2.098   2.099   2.103   2.105
  2.106   2.109   2.117   2.122   2.124   2.133   2.135   2.136
  2.143   2.147   2.148   2.149   2.154   2.156   2.158   2.165
  2.168   2.169   2.179   2.184   2.184   2.189   2.197   2.198
  2.203   2.203   2.207   2.209   2.212   2.214   2.218   2.218
  2.219   2.232   2.236   2.242   2.248   2.251   2.252   2.256
  2.258   2.261   2.263   2.265   2.268   2.276   2.281   2.283
  2.289   2.293   2.294   2.297   2.304   2.306   2.309   2.309
  2.311   2.314   2.317   2.324   2.325   2.334   2.336   2.341
  2.344   2.346   2.352   2.355   2.359   2.362   2.363   2.366
  2.366   2.376   2.379   2.386   2.389   2.393   2.394   2.398
  2.403   2.408   2.410   2.410   2.417   2.420   2.422   2.429
  2.433   2.434   2.436   2.437   2.443   2.445   2.448   2.450
  2.452   2.458   2.461   2.468   2.473   2.479   2.481   2.482
  2.483   2.484   2.487   2.494   2.501   2.504   2.509   2.513
  2.514   2.516   2.518   2.523   2.526   2.528   2.531   2.539
  2.541   2.545   2.549   2.552   2.560   2.564   2.566   2.569
  2.573   2.579   2.589   2.596   2.597   2.602   2.607   2.609
  2.618   2.624   2.628   2.633   2.636   2.644   2.648   2.652
  2.658   2.660   2.663   2.667   2.668   2.675   2.679   2.683
  2.683   2.685   2.686   2.691   2.695   2.698   2.705   2.708
  2.718   2.719   2.721   2.730   2.733   2.737   2.740   2.750
  2.751   2.754   2.771   2.775   2.778   2.791   2.792   2.797
  2.805   2.813   2.814   2.821   2.826   2.833   2.838   2.843
  2.852   2.855   2.859   2.870   2.872   2.876   2.880   2.882
  2.888   2.902   2.904   2.908   2.911   2.918   2.918   2.924
  2.924   2.931   2.934   2.939   2.941   2.943   2.950   2.953
  2.959   2.964   2.968   2.970   2.982   2.986   3.013   3.043
  3.044   3.047   3.058   3.070   3.075   3.076   3.092   3.099
  3.176   3.180   3.184   3.205   3.206   3.214   3.229   3.241
  3.244   3.248   3.257   3.270   3.272   3.280   3.285   3.292
  3.302   3.308   3.310   3.321   3.333   3.334   3.347   3.349
  3.351   3.355   3.369   3.372   3.391   3.415   3.430   3.437
  3.462   3.463   3.464   3.481   3.491   3.495   3.530   3.537
  3.551   3.559   3.573   3.578   3.579   3.597   3.600   3.610
  3.626   3.632   3.704   3.736   3.842   3.846   3.925   3.933
  3.938   3.942   3.949   3.952   3.964   3.972   3.978   3.997
  4.020   4.021   4.055   4.070   4.086   4.098   4.110   4.110
  4.116   4.137   4.143   4.146   4.151   4.167   4.186   4.188
  4.206   4.216   4.246   4.252   4.257   4.257   4.265   4.269
  4.275   4.294   4.315   4.321   4.375   4.379   4.389   4.396
  4.424   4.425   4.432   4.444   4.456   4.461   4.484   4.487
  4.488   4.503   4.525   4.529   4.580   4.587   4.638   4.654
  4.692   4.695   4.719   4.725   4.757   4.769   4.807   4.812
 --------------------------------------------------------------
 
          Ground-State Mulliken Net Atomic Charges

     Atom                 Charge (a.u.)
  ----------------------------------------
      1 C                     0.275915
      2 C                    -0.113857
      3 N                    -0.494260
      4 C                    -0.088465
      5 C                     0.046233
      6 C                     0.060995
      7 C                     0.049381
      8 C                     0.048896
      9 C                     0.259944
     10 N                    -0.543000
     11 N                    -0.547122
     12 C                     0.154129
     13 C                     0.330370
     14 S                     0.617337
     15 N                    -0.545610
     16 C                    -0.225234
     17 S                     0.357646
     18 C                    -0.117307
     19 C                    -0.230848
     20 S                     0.268020
     21 C                     0.144785
     22 C                     0.057808
     23 C                    -0.304742
     24 C                    -0.067609
     25 N                    -0.419958
     26 S                     0.283437
     27 C                     0.119722
     28 C                    -0.303567
     29 C                    -0.222343
     30 H                     0.087806
     31 H                     0.099087
     32 H                     0.109118
     33 H                     0.124773
     34 H                     0.121534
     35 H                     0.107778
     36 H                     0.118896
     37 H                     0.133275
     38 H                     0.123006
     39 C                    -0.183496
     40 H                     0.091812
     41 H                     0.122518
     42 H                     0.093555
     43 C                    -0.188810
     44 H                     0.117090
     45 C                    -0.173008
     46 H                     0.084816
     47 H                     0.101653
     48 H                     0.079702
     49 C                    -0.179151
     50 H                     0.096523
     51 C                    -0.334767
     52 H                     0.084564
     53 H                     0.091258
     54 H                     0.090535
     55 H                     0.134849
     56 C                     0.285466
     57 C                    -0.115467
     58 N                    -0.489154
     59 C                    -0.104780
     60 C                     0.067603
     61 C                     0.062460
     62 C                     0.036622
     63 C                     0.068375
     64 C                     0.228667
     65 N                    -0.510455
     66 N                    -0.555665
     67 C                     0.219404
     68 C                     0.249423
     69 S                     0.604591
     70 N                    -0.552604
     71 C                    -0.205178
     72 S                     0.347263
     73 C                    -0.106932
     74 C                    -0.217067
     75 S                     0.290647
     76 C                     0.124035
     77 C                     0.067088
     78 C                    -0.297295
     79 C                    -0.087983
     80 N                    -0.438749
     81 S                     0.260792
     82 C                     0.127465
     83 C                    -0.323905
     84 C                    -0.249038
     85 H                     0.093559
     86 H                     0.089485
     87 H                     0.123327
     88 H                     0.118648
     89 H                     0.129128
     90 H                     0.119674
     91 H                     0.126315
     92 H                     0.140403
     93 H                     0.112668
     94 C                    -0.174108
     95 H                     0.106540
     96 H                     0.120081
     97 H                     0.097674
     98 C                    -0.188459
     99 H                     0.087438
    100 C                    -0.153992
    101 H                     0.087390
    102 H                     0.094287
    103 H                     0.092815
    104 C                    -0.175130
    105 H                     0.093372
    106 C                    -0.315463
    107 H                     0.088669
    108 H                     0.097933
    109 H                     0.095340
    110 H                     0.101168
  ----------------------------------------
  Sum of atomic charges =     0.000000

 -----------------------------------------------------------------
                    Cartesian Multipole Moments
 -----------------------------------------------------------------
    Charge (ESU x 10^10)
                 0.0000
    Dipole Moment (Debye)
         X      -5.3369      Y      -0.0102      Z      -0.7937
       Tot       5.3956
    Quadrupole Moments (Debye-Ang)
        XX    -367.0563     XY     -13.5684     YY    -410.1963
        XZ     -10.0120     YZ      -1.3540     ZZ    -445.8339
    Octopole Moments (Debye-Ang^2)
       XXX   -2013.1289    XXY     -13.8154    XYY     -38.3564
       YYY      67.5453    XXZ    -283.8458    XYZ      74.8045
       YYZ      21.2155    XZZ      39.8658    YZZ     -30.5296
       ZZZ      -0.1248
    Hexadecapole Moments (Debye-Ang^3)
      XXXX -213268.6728   XXXY   -5503.6444   XXYY  -39960.9306
      XYYY     384.8230   YYYY  -15483.6793   XXXZ    2366.6378
      XXYZ     706.3154   XYYZ    -273.9110   YYYZ    -172.9137
      XXZZ  -40458.9688   XYZZ    -155.2121   YYZZ   -3586.6464
      XZZZ    -208.4585   YZZZ     -27.4435   ZZZZ   -5354.9789
 -----------------------------------------------------------------
Archival summary:
1\1\mn426\SP\ProcedureUnspecified\6-31G**\8105042\afmv_a\SatOct615:23:272018SatOct615:23:272018\0\\#,ProcedureUnspecified,6-31G**,\\0,1\S\C,1,1.77589\C,2,1.35587,1,109.172\C,3,1.40663,2,114.636,1,7.95638,0\C,4,1.38874,3,116.044,2,-7.81629,0\C,2,1.41628,1,124.541,3,179.825,0\N,6,1.35758,2,117.355,1,-36.9454,0\C,7,1.31448,6,125.074,2,170.989,0\H,8,1.08868,7,112.308,6,176.81,0\C,6,1.41941,2,124.138,1,136.584,0\N,10,1.36191,6,127.732,2,2.56569,0\C,4,1.42217,3,110.862,2,175.289,0\H,12,1.08331,4,129.774,3,-178.959,0\C,12,1.39006,4,109.458,3,-8.33755,0\H,14,1.08243,12,129.321,4,-173.1,0\C,5,1.42508,4,126.803,3,175.764,0\N,16,1.3087,5,117.879,4,165.236,0\C,17,1.40519,16,107.985,5,177.515,0\H,18,1.0813,17,120.134,16,-170.603,0\C,18,1.41194,17,115.197,16,9.24682,0\H,20,1.08166,18,129.281,17,-177.481,0\C,10,1.43021,6,118.011,2,-167.998,0\N,22,1.34498,10,115.234,6,177.338,0\C,22,1.41966,10,123.163,6,-2.53291,0\C,24,1.50846,22,124.788,10,-176.174,0\C,25,1.41575,24,129.326,22,-15.681,0\H,26,1.0889,25,115.73,24,4.16897,0\N,26,1.32667,25,126.52,24,175.705,0\C,28,1.3299,26,121.118,25,6.17158,0\C,29,1.40549,28,120.946,26,-0.750847,0\H,30,1.08609,29,120.684,28,175.117,0\C,30,1.42122,29,115.686,28,-4.56104,0\H,32,1.08662,30,112.589,29,-174.557,0\C,29,1.52081,28,117.509,26,173.477,0\H,34,1.09697,29,108.647,28,131.786,0\H,34,1.09741,29,104.731,28,-115.554,0\C,34,1.54825,29,118.866,28,5.71755,0\H,37,1.09638,34,106.482,29,-38.5648,0\H,37,1.09658,34,106.896,29,76.5013,0\C,37,1.59214,34,111.505,29,-165.269,0\H,40,1.09698,37,111.375,34,52.5592,0\H,40,1.09739,37,110.008,34,-59.4366,0\C,40,1.54723,37,111.33,34,-176.603,0\H,43,1.09652,40,112.911,37,-63.2708,0\H,43,1.09727,40,102.611,37,51.5387,0\C,43,1.46155,40,108.286,37,166.721,0\H,46,1.09648,43,114.436,40,74.8828,0\H,46,1.09731,43,111.962,40,-45.5325,0\C,46,1.50912,43,115.4,40,-167.55,0\H,49,1.09703,46,117.407,43,44.5997,0\H,49,1.09716,46,100.59,43,159.557,0\H,49,1.09761,46,109.312,43,-83.0148,0\S,11,1.65262,10,104.989,6,-176.443,0\S,14,1.69647,12,117.879,4,4.87378,0\S,20,1.74107,18,111.224,17,-2.64437,0\H,19,2.59299,18,147.632,17,6.97797,0\C,56,1.09702,19,115.68,18,99.8141,0\H,57,1.09789,56,108.082,19,163.87,0\C,57,1.52357,56,107.336,19,51.5164,0\N,59,1.34294,57,115.538,56,-69.2623,0\C,59,1.362,57,125.521,56,107.288,0\H,61,1.08626,59,120.316,57,4.55836,0\C,60,1.37999,59,119.046,57,172.227,0\H,63,1.08871,60,109.722,59,179.948,0\C,63,1.37618,60,127.183,59,8.39302,0\C,61,1.38931,59,122.032,57,-175.217,0\H,66,1.08552,61,116.91,59,178.375,0\C,65,1.47999,63,120.825,60,177.87,0\C,68,1.39399,65,116.062,63,-150.732,0\H,69,1.08889,68,121.543,65,11.165,0\N,69,1.37792,68,123.252,65,177.306,0\C,71,1.35769,69,119.925,68,-1.16777,0\C,72,1.4138,71,118.378,69,-0.572094,0\C,73,1.36984,72,122.779,71,3.21939,0\N,74,1.3251,73,114.352,72,170.095,0\N,73,1.40996,72,123.014,71,178.266,0\C,72,1.47376,71,117.304,69,-177.759,0\C,77,1.37399,72,125.651,71,-9.72043,0\C,78,1.39191,77,116.784,72,-174.358,0\C,79,1.36803,78,114.988,77,3.49002,0\C,79,1.4087,78,110.802,77,170.285,0\H,81,1.08369,79,125.874,78,-174.346,0\C,81,1.3489,79,114.129,78,3.00362,0\H,83,1.0819,81,125.101,79,171.593,0\C,80,1.41676,79,124.075,78,155.202,0\N,85,1.31919,80,114.058,79,-138.414,0\C,86,1.38171,85,109.517,80,170.928,0\H,87,1.08164,86,122.466,85,-170.931,0\C,87,1.3638,86,113.459,85,9.08956,0\H,89,1.08263,87,124.157,86,168.38,0\C,57,1.5541,56,111.898,19,-79.5176,0\H,91,1.09722,57,107.491,56,97.1784,0\H,91,1.09723,57,112.336,56,-147.878,0\C,91,1.52827,57,114.084,56,-22.6758,0\H,94,1.09653,91,104.401,57,-76.0529,0\H,94,1.09685,91,115.213,57,41.2387,0\C,94,1.56935,91,113.064,57,165.005,0\H,97,1.09699,94,110.354,91,44.8533,0\H,97,1.09747,94,114.161,91,-63.6333,0\C,97,1.52215,94,118.251,91,164.518,0\H,100,1.09624,97,107.657,94,-70.4207,0\H,100,1.0978,97,112.308,94,38.7056,0\C,100,1.55724,97,112.929,94,167.907,0\H,103,1.0966,100,113.196,97,78.1096,0\H,103,1.09663,100,116.102,97,-52.9484,0\H,103,1.09704,100,110.914,97,-171.69,0\S,75,1.58804,74,107.539,73,1.0671,0\S,89,1.71502,87,112.56,86,-8.49242,0\S,78,1.76168,77,129.006,72,9.04877,0\S,80,1.76409,79,107.598,78,-4.36222,0\\\@

 Total job time:  95.47s(wall), 1035.09s(cpu) 
 Sat Oct  6 15:23:27 2018

        *************************************************************
        *                                                           *
        *  Thank you very much for using Q-Chem.  Have a nice day.  *
        *                                                           *
        *************************************************************


