
Running Job 1 of 1 ./10/43.qcin
qchem ./10/43.qcin_30451.0 /tmpu/cab_g/afmv_a/scratch_qchem/qchem30451/ 1
/tmpu/appuserlic/qchem4.4/serial-multicore/exe/qcprog.exe_s ./10/43.qcin_30451.0 /tmpu/cab_g/afmv_a/scratch_qchem/qchem30451/
Check license passed

                  Welcome to Q-Chem
     A Quantum Leap Into The Future Of Chemistry


 Q-Chem 4.4, Q-Chem, Inc., Pleasanton, CA (2016)

 Y. Shao,  Z. Gan,  E. Epifanovsky,  A. T. B. Gilbert,  M. Wormit,  
 J. Kussmann,  A. W. Lange,  A. Behn,  J. Deng,  X. Feng,  D. Ghosh,  
 M. Goldey,  P. R. Horn,  L. D. Jacobson,  I. Kaliman,  F. Rob,  
 R. Z. Khaliullin,  T. Kus,  A. Landau,  J. Liu,  E. I. Proynov,  Y. M. Rhee,  
 R. M. Richard,  M. A. Rohrdanz,  R. P. Steele,  E. J. Sundstrom,  
 H. L. Woodcock III,  P. M. Zimmerman,  D. Zuev,  B. Albrecht,  E. Alguire,  
 B. Austin,  S. A. Baeppler,  G. J. O. Beran,  Y. A. Bernard,  E. Berquist,  
 K. Brandhorst,  K. B. Bravaya,  S. T. Brown,  D. Casanova,  C.-M. Chang,  
 Y. Chen,  S. H. Chien,  K. D. Closser,  M. P. Coons,  D. L. Crittenden,  
 S. Dasgupta,  M. Diedenhofen,  R. A. DiStasio Jr.,  H. Do,  A. D. Dutoi,  
 R. G. Edgar,  P.-T. Fang,  S. Fatehi,  Q. Feng,  L. Fusti-Molnar,  
 A. Ghysels,  A. Golubeva-Zadorozhnaya,  J. Gomes,  A. Gunina,  
 M. W. D. Hanson-Heine,  P. H. P. Harbach,  A. W. Hauser,  J. E. Herr,  
 E. G. Hohenstein,  Z. C. Holden,  K. Hui,  T.-C. Jagau,  H. Ji,  B. Kaduk,  
 K. Khistyaev,  Jaehoon Kim,  Jihan Kim,  R. A. King,  P. Klunzinger,  
 K. Koh,  D. Kosenkov,  T. Kowalczyk,  C. M. Krauter,  A. Kunitsa,  
 K. U. Lao,  A. Laurent,  K. V. Lawler,  J. Lee,  D. Lefrancois,  S. Lehtola,  
 S. V. Levchenko,  C. Y. Lin,  Y.-S. Lin,  F. Liu,  E. Livshits,  
 R. C. Lochan,  A. Luenser,  P. Manohar,  S. F. Manzer,  S.-P. Mao,  Y. Mao,  
 N. Mardirossian,  A. V. Marenich,  L. A. Martinez-Martinez,  S. A. Maurer,  
 N. J. Mayhall,  J.-M. Mewes,  A. F. Morrison,  K. Nanda,  T. S. Nguyen-Beck,  
 C. M. Oana,  R. Olivares-Amaya,  D. P. O'Neill,  J. A. Parkhill,  
 T. M. Perrine,  R. Peverati,  P. A. Pieniazek,  F. Plasser,  A. Prociuk,  
 D. R. Rehn,  E. Rosta,  N. J. Russ,  N. Sergueev,  S. M. Sharada,  
 S. Sharma,  D. W. Small,  A. Sodt,  T. Stauch,  T. Stein,  D. Stuck,  
 Y.-C. Su,  A. J. W. Thom,  T. Tsuchimochi,  L. Vogt,  O. Vydrov,  T. Wang,  
 M. A. Watson,  J. Wenzel,  A. White,  C. F. Williams,  V. Vanovschi,  
 K. Yao,  S. Yeganeh,  S. R. Yost,  Z.-Q. You,  I. Y. Zhang,  X. Zhang,  
 Y. Zhao,  B. R. Brooks,  G. K. L. Chan,  D. M. Chipman,  C. J. Cramer,  
 W. A. Goddard III,  M. S. Gordon,  W. J. Hehre,  A. Klamt,  
 H. F. Schaefer III,  M. W. Schmidt,  C. D. Sherrill,  D. G. Truhlar,  
 A. Warshel,  X. Xu,  A. Aspuru-Guzik,  R. Baer,  A. T. Bell,  N. A. Besley,  
 J.-D. Chai,  A. Dreuw,  B. D. Dunietz,  T. R. Furlani,  S. R. Gwaltney,  
 C.-P. Hsu,  Y. Jung,  J. Kong,  D. S. Lambrecht,  W. Liang,  C. Ochsenfeld,  
 V. A. Rassolov,  L. V. Slipchenko,  J. E. Subotnik,  T. Van Voorhis,  
 J. M. Herbert,  A. I. Krylov,  P. M. W. Gill,  M. Head-Gordon

 Contributors to earlier versions of Q-Chem not listed above: 
 R. D. Adamson,  J. Baker,  E. F. C. Byrd,  A. K. Chakraborty,  C.-L. Cheng,  
 H. Dachsel,  R. J. Doerksen,  G. Hawkins,  A. Heyden,  S. Hirata,  
 G. Kedziora,  F. J. Keil,  C. Kelley,  P. P. Korambath,  W. Kurlancheek,  
 A. M. Lee,  M. S. Lee,  D. Liotard,  I. Lotan,  P. E. Maslen,  N. Nair,  
 D. Neuhauser,  R. Olson,  B. Peters,  J. Ritchie,  N. E. Schultz,  
 N. Shenvi,  A. C. Simmonett,  K. S. Thanthiriwatte,  Q. Wu,  W. Zhang

 Please cite Q-Chem as follows:
 Y. Shao et al., Mol. Phys. 113, 184-215 (2015)
 DOI: 10.1080/00268976.2014.952696

 Q-Chem 4.4.2 for Intel X86 Linux

 Parts of Q-Chem use Armadillo 5.200.1 (Boston Tea Smuggler).
 http://arma.sourceforge.net/

 Q-Chem begins on Sat Oct  6 15:24:59 2018  

Host: 
0

     Scratch files written to /tmpu/cab_g/afmv_a/scratch_qchem/qchem30451//
 Dec716 11556_ 22328  22283 4050   
Processing $rem in /tmpu/appuserlic/qchem4.4/serial-multicore/config/preferences.
 MEM_TOTAL  2000 
FILE_GEOM_ORG=        593

Checking the input file for inconsistencies... 	...done.

--------------------------------------------------------------
User input:
--------------------------------------------------------------
$comment
SP
$end

$rem
MEM_STATIC 5000
MEM_TOTAL 20000
JOBTYPE SP
EXCHANGE B3LYP
BASIS 6-31g(d,p)
$end

$molecule
0 1
C           8.111000     18.327000     -7.223000
C           6.856000     17.759000     -7.459000
N           9.054000     17.483000     -6.760000
C           6.429000     16.479000     -7.091000
C           8.666000     16.236000     -6.415000
C           7.338000     15.606000     -6.576000
C           6.970000     14.180000     -6.374000
C           5.933000     13.913000     -5.547000
C           7.667000     13.161000     -6.971000
N           5.461000     12.693000     -5.328000
N           8.703000     13.276000     -7.830000
C           7.147000     11.816000     -6.867000
C           6.000000     11.634000     -5.971000
S           8.966000     11.698000     -8.381000
N           7.826000     10.901000     -7.625000
C           5.338000     10.314000     -5.740000
S           5.965000      8.753000     -6.273000
C           4.227000     10.074000     -4.926000
C           4.618000      7.831000     -5.506000
S           3.105000     11.272000     -4.325000
C           3.828000      8.714000     -4.870000
C           4.384000      6.489000     -5.478000
C           1.973000      9.895000     -3.995000
C           2.547000      8.632000     -4.221000
N           5.002000      5.858000     -6.411000
S           3.572000      5.504000     -4.246000
C           4.982000      4.496000     -6.197000
C           4.221000      4.070000     -5.182000
C           8.588000     19.778000     -7.482000
H           6.059000     18.416000     -7.795000
H           5.376000     16.255000     -7.237000
H           9.496000     15.677000     -5.985000
H           5.312000     14.687000     -5.098000
H           1.066000     10.091000     -3.439000
H           2.071000      7.682000     -4.003000
H           5.597000      3.869000     -6.829000
H           4.117000      3.103000     -4.709000
H           9.254000     19.902000     -8.345000
C           9.151000     20.386000     -6.143000
H           7.640000     20.284000     -7.704000
H          10.171000     20.025000     -5.964000
H           8.485000     20.145000     -5.304000
C           9.200000     21.944000     -6.140000
H           8.169000     22.313000     -6.204000
C           9.999000     22.634000     -7.277000
H           9.427000     22.388000     -5.163000
H           9.781000     22.060000     -8.186000
H          11.077000     22.496000     -7.129000
C           9.588000     24.145000     -7.367000
H          10.033000     24.534000     -8.291000
C           9.915000     25.048000     -6.085000
H           8.511000     24.285000     -7.524000
H          10.984000     25.236000     -5.923000
H           9.562000     24.518000     -5.192000
H           9.466000     26.049000     -6.075000
C         -10.681000      9.504000     -0.146000
C          -9.752000     10.215000     -0.925000
N         -10.291000      8.507000      0.643000
C          -8.416000      9.732000     -0.884000
C          -9.013000      8.162000      0.731000
C          -7.946000      8.677000     -0.044000
C          -6.493000      8.272000     -0.059000
C          -5.486000      9.047000     -0.800000
C          -5.982000      7.068000      0.493000
N          -4.221000      8.691000     -0.830000
N          -6.772000      6.207000      1.159000
C          -4.609000      6.681000      0.390000
C          -3.711000      7.574000     -0.251000
S          -5.753000      5.006000      1.669000
N          -4.305000      5.553000      1.090000
C          -2.301000      7.446000     -0.214000
S          -1.174000      8.794000      0.044000
C          -1.595000      6.299000     -0.370000
C           0.267000      7.760000     -0.225000
S          -2.141000      4.686000     -0.842000
C          -0.203000      6.476000     -0.468000
C           1.613000      8.213000     -0.343000
C          -0.506000      4.265000     -1.008000
C           0.447000      5.240000     -0.737000
N           1.922000      9.362000      0.202000
S           2.948000      7.191000     -0.953000
C           3.271000      9.630000     -0.086000
C           3.984000      8.562000     -0.673000
C         -12.139000      9.930000     -0.071000
H         -10.062000     11.078000     -1.507000
H          -7.761000     10.257000     -1.574000
H          -8.769000      7.311000      1.365000
H          -5.675000      9.950000     -1.378000
H          -0.368000      3.247000     -1.349000
H           1.499000      5.028000     -0.885000
H           3.692000     10.600000      0.140000
H           5.009000      8.530000     -1.017000
H         -12.110000     10.958000      0.312000
C         -13.114000      9.107000      0.806000
H         -12.536000     10.003000     -1.091000
H         -12.557000      8.821000      1.706000
H         -13.347000      8.191000      0.250000
C         -14.473000      9.895000      1.065000
H         -14.283000     10.901000      1.459000
C         -15.477000      9.036000      1.870000
H         -14.965000     10.119000      0.110000
H         -15.116000      8.787000      2.875000
H         -15.504000      8.100000      1.298000
C         -16.789000      9.676000      1.798000
H         -16.892000     10.571000      2.423000
C         -17.947000      8.834000      2.275000
H         -17.035000      9.994000      0.777000
H         -17.982000      7.789000      1.943000
H         -18.784000      9.345000      1.783000
H         -18.020000      8.903000      3.368000
$end

--------------------------------------------------------------
 ----------------------------------------------------------------
             Standard Nuclear Orientation (Angstroms)
    I     Atom           X                Y                Z
 ----------------------------------------------------------------
    1      C     -11.0087080016    -3.9769615334    -0.3874814882
    2      C      -9.8059710060    -3.9808325454    -1.0993478624
    3      N     -11.3078389345    -2.8243718585     0.2434002171
    4      C      -8.8069724088    -3.0024521022    -1.0689092158
    5      C     -10.3631052750    -1.8592992205     0.2696893021
    6      C      -9.0473113789    -1.8385954917    -0.4045975647
    7      C      -8.0996851996    -0.7001102605    -0.5293373042
    8      C      -6.8214716974    -0.9045508818    -0.1356860943
    9      C      -8.4993706280     0.5268341066    -0.9934903806
   10      N      -5.8612555555     0.0030703406    -0.2512442074
   11      N      -9.7280170763     0.8694986199    -1.4377998857
   12      C      -7.4900869181     1.5299418029    -1.2491509815
   13      C      -6.1277942373     1.2011779897    -0.8159974209
   14      S      -9.5228333560     2.4223399788    -2.0776728066
   15      N      -7.9730924211     2.6576281654    -1.8556649152
   16      C      -4.9629288342     2.1201264832    -0.9966275925
   17      S      -5.0661292823     3.8091783994    -1.4970197307
   18      C      -3.6374012071     1.8604837314    -0.6359627188
   19      C      -3.2878173506     4.0714269334    -1.3500014326
   20      S      -2.9473964190     0.2934164508    -0.2845619068
   21      C      -2.7417104573     2.9285521619    -0.8984601635
   22      C      -2.5488827191     5.1925029732    -1.5816652477
   23      C      -1.3268860925     1.0662490660    -0.5358168182
   24      C      -1.3936440813     2.4572023533    -0.7269014158
   25      N      -3.1550155008     6.0396834562    -2.3336375081
   26      S      -1.0326371673     5.7274162640    -0.8318251328
   27      C      -2.5229645600     7.2651010587    -2.3234734609
   28      C      -1.3484074161     7.3171368428    -1.6843101071
   29      C     -12.0788042412    -5.0916834937    -0.2765761715
   30      H      -9.5111441429    -4.9047398563    -1.5884556232
   31      H      -7.8791956002    -3.2360592795    -1.5836507820
   32      H     -10.6911114113    -1.0122524992     0.8706924855
   33      H      -6.4419634478    -1.8746558730     0.1824141955
   34      H      -0.4385022210     0.5000504902    -0.2900643620
   35      H      -0.5372120419     3.1178684254    -0.8084152369
   36      H      -3.0208053503     8.1022660070    -2.7947349561
   37      H      -0.7091667793     8.1442047763    -1.4068861686
   38      H     -12.9992816727    -4.9115946679    -0.8457776412
   39      C     -12.3183542858    -5.4318437326     1.2421274823
   40      H     -11.5557878892    -5.9433850548    -0.7294363555
   41      H     -12.9750052087    -4.6810874022     1.6981280280
   42      H     -11.3601495285    -5.5052259495     1.7731799216
   43      C     -12.9751069148    -6.8269233800     1.4706067194
   44      H     -12.2713022775    -7.5914997725     1.1194657612
   45      C     -14.3297700375    -7.1008672287     0.7655446003
   46      H     -12.9944862586    -7.1521896088     2.5179940983
   47      H     -14.2423310209    -6.6548938979    -0.2328256750
   48      H     -15.1347843250    -6.5279704100     1.2417517316
   49      C     -14.6117638239    -8.6437015886     0.7487029152
   50      H     -15.4717814178    -8.7955957576     0.0850615213
   51      C     -14.7886002498    -9.3494309699     2.1757757651
   52      H     -13.8115964720    -9.2178446240     0.2646884694
   53      H     -15.7099716711    -9.0767098013     2.7059143019
   54      H     -13.9617227877    -9.0304982298     2.8219286650
   55      H     -14.8010146742   -10.4464847600     2.1712080831
   56      C      10.9102612153    -3.9268781994    -1.1779257501
   57      C       9.5649239510    -4.1717291497    -1.5027621052
   58      N      11.2559488460    -2.8717045877    -0.4459840099
   59      C       8.6398744547    -3.1758577776    -1.0875637916
   60      C      10.3421553415    -2.0262245688     0.0124895105
   61      C       8.9589841063    -2.0354603418    -0.2893234025
   62      C       7.8840832169    -1.0606548374     0.1227461384
   63      C       6.4609613230    -1.3317356906    -0.1321935531
   64      C       8.1247371945     0.2371372114     0.6454912589
   65      N       5.5204439387    -0.4796783971     0.2102774945
   66      N       9.3714746581     0.6782222390     0.8905763368
   67      C       7.0790443880     1.1636904436     0.9513223599
   68      C       5.7371548530     0.7381942531     0.7696097637
   69      S       9.1660103117     2.1860835397     1.5424971145
   70      N       7.5176066468     2.3034944659     1.5540743286
   71      C       4.6076085252     1.4425001395     1.2532742256
   72      S       3.2124808081     0.6839079884     2.0482293196
   73      C       4.4082017570     2.7819786957     1.1868277176
   74      C       2.3059956893     2.2294953167     2.1344994777
   75      S       5.3401136590     4.0275321143     0.3484925291
   76      C       3.1250905166     3.2039696255     1.5794422868
   77      C       0.9454988253     2.3818695877     2.5303269208
   78      C       4.0636576625     5.0954281814     0.6775519143
   79      C       2.9679937147     4.6028537765     1.3769559241
   80      N       0.4237674912     1.4576863215     3.2960871348
   81      S       0.0023822450     3.8781124389     2.2646251217
   82      C      -0.9267030742     1.7822872859     3.5092360640
   83      C      -1.3169798425     3.0602587336     3.0531274990
   84      C      12.0024820061    -4.9238725532    -1.5327792445
   85      H       9.2783531442    -5.0752891040    -2.0329032012
   86      H       7.6317610685    -3.3676284144    -1.4448891664
   87      H      10.6983821107    -1.1620066009     0.5709899966
   88      H       6.0575823337    -2.2211899642    -0.6132034139
   89      H       4.2279843455     6.0837312522     0.2677924952
   90      H       2.1087073134     5.2371709357     1.5581205510
   91      H      -1.5861685056     1.0729236610     3.9899912953
   92      H      -2.2945157382     3.5231089267     3.0664793236
   93      H      11.7078329982    -5.8522576302    -1.0272131155
   94      C      13.4660061403    -4.5981405073    -1.1466720796
   95      H      11.9458830769    -5.1385534149    -2.6070448955
   96      H      13.4286584171    -4.1211020399    -0.1602216509
   97      H      13.8273153796    -3.8537282031    -1.8662462280
   98      C      14.3968416874    -5.8858265582    -1.2482388979
   99      H      13.9785534062    -6.7271974163    -0.6821099436
  100      C      15.8734773079    -5.5382675551    -0.9438181631
  101      H      14.3840902089    -6.2784630509    -2.2729042015
  102      H      16.0248227534    -5.1784595851     0.0808670475
  103      H      16.0626414627    -4.6894114706    -1.6128990777
  104      C      16.7050497598    -6.6662299350    -1.3589279399
  105      H      16.6610326497    -7.5330117519    -0.6888452764
  106      C      18.1883372662    -6.3928185372    -1.4095380278
  107      H      16.4233699158    -7.0404435810    -2.3512492652
  108      H      18.5129761187    -5.4523624057    -1.8717348258
  109      H      18.5191480126    -7.1981218458    -2.0772242050
  110      H      18.6125845119    -6.5046073804    -0.4034284269
 ----------------------------------------------------------------
 Molecular Point Group                 C1    NOp =  1
 Largest Abelian Subgroup              C1    NOp =  1
 Nuclear Repulsion Energy = 10542.6036762977 hartrees
 There are      270 alpha and      270 beta electrons
 Requested basis set is 6-31G(d,p)
 There are 406 shells and 1262 basis functions

 Total QAlloc Memory Limit  20000 MB
 Mega-Array Size      4888 MB
 MEM_STATIC part      5000 MB
 A cutoff of  1.0D-08 yielded  12788 shell pairs
 There are    134410 function pairs
 
 -------------------------------------------------------
 OpenMP Integral Computing Module                       
 Release: version 1.0, May 2013, Q-Chem Inc. Pittsburgh 
 -------------------------------------------------------
 Integral Job Info:
 Integral job number is                      11
 Integral operator is                         1
 short-range coefficients                     0
 long-range coefficients              100000000
 Omega coefficients                           0
 if combine SR and LR in K                    0
 Integral screening is                        0
 Integral computing path is                   2
 max size of driver memory is            800000
 size of driver memory is                593474
 size of scratch memory is             15166112
 max col of scratch BK array               1296
 max len of scratch array in speh3          155
 max len of scratch index in speh4           18
 max int batch size is                      520
 min int batch size is                       52
 fixed nKL is                                52
 max L of basis functions is                  2
 order of int derivative is                   0
 number of shells is                        406
 number of basis is                        1262
 number of cartesian basis is              1262
 number of contracted shell pairs         12788
 number of primitive shell pairs          42031
 maxK2 (contraction) of shell pair           36
 max number of K2 of shell pair               1
 max number of CS2 of shell pair           1316
 max number of PS2 of shell pair           7896
 mem total for path MDJ                  277672
 -------------------------------------------------------
 Smallest overlap matrix eigenvalue = 4.39E-04

 Scale SEOQF with 1.000000e-03/1.000000e-02/1.000000e-01

 Standard Electronic Orientation quadrupole field applied
 Nucleus-field energy     =    -0.0000000455 hartrees
 Guess from superposition of atomic densities
 Warning:  Energy on first SCF cycle will be non-variational
 A restricted hybrid HF-DFT SCF calculation will be
 performed using Pulay DIIS extrapolation
 Exchange:     0.2000 Hartree-Fock + 0.0800 Slater + 0.7200 B88
 Correlation:  0.1900 VWN1RPA + 0.8100 LYP
 Using SG-1 standard quadrature grid
 SCF converges when DIIS error is below 1.0E-05
 using 16 threads for integral computing 
 -------------------------------------------------------
 OpenMP BLAS3 based DFT computing Module                
 Release: version 1.0, May 2013, Q-Chem Inc. Pittsburgh 
 -------------------------------------------------------
 ---------------------------------------
  Cycle       Energy         DIIS Error
 ---------------------------------------
    1   -5679.9506909715      2.14E-02
    2   -5662.4897615387      2.14E-03
    3   -5661.1021013139      3.25E-03
    4   -5663.3188433692      8.68E-04
    5   -5663.4588861337      3.98E-04
    6   -5663.4815714284      2.28E-04
    7   -5663.4911722279      7.87E-05
    8   -5663.4922372715      3.15E-05
    9   -5663.4924276093      1.11E-05
   10   -5663.4924540587      3.95E-06 Convergence criterion met
 ---------------------------------------
 SCF time:  CPU 993.54 s  wall 90.13 s
 SCF   energy in the final basis set = -5663.4924540587
 Total energy in the final basis set = -5663.4924540587
 
 --------------------------------------------------------------
 
                    Orbital Energies (a.u.)
 --------------------------------------------------------------
 
 Alpha MOs
 -- Occupied --
-88.992 -88.990 -88.927 -88.926 -88.923 -88.923 -88.915 -88.911
-14.395 -14.394 -14.389 -14.383 -14.351 -14.347 -14.344 -14.337
-14.326 -14.325 -10.274 -10.268 -10.266 -10.263 -10.262 -10.262
-10.261 -10.257 -10.248 -10.244 -10.241 -10.240 -10.237 -10.236
-10.234 -10.233 -10.232 -10.231 -10.231 -10.231 -10.231 -10.230
-10.230 -10.229 -10.229 -10.229 -10.223 -10.222 -10.218 -10.216
-10.215 -10.213 -10.207 -10.207 -10.207 -10.206 -10.202 -10.194
-10.193 -10.186 -10.185 -10.183 -10.180 -10.178 -10.176 -10.176
-10.174 -10.171 -10.169 -10.166  -8.047  -8.046  -7.987  -7.986
 -7.981  -7.981  -7.977  -7.970  -6.012  -6.011  -6.006  -6.005
 -6.005  -6.003  -5.951  -5.950  -5.948  -5.947  -5.946  -5.946
 -5.944  -5.943  -5.942  -5.942  -5.941  -5.938  -5.938  -5.938
 -5.934  -5.933  -5.931  -5.926  -1.035  -1.034  -0.981  -0.965
 -0.964  -0.960  -0.944  -0.935  -0.919  -0.912  -0.908  -0.905
 -0.852  -0.839  -0.837  -0.827  -0.815  -0.813  -0.807  -0.805
 -0.803  -0.798  -0.796  -0.796  -0.788  -0.778  -0.768  -0.766
 -0.749  -0.749  -0.745  -0.736  -0.725  -0.717  -0.714  -0.708
 -0.697  -0.693  -0.681  -0.678  -0.657  -0.654  -0.647  -0.646
 -0.640  -0.636  -0.628  -0.624  -0.615  -0.606  -0.604  -0.599
 -0.596  -0.592  -0.587  -0.580  -0.577  -0.575  -0.571  -0.561
 -0.549  -0.548  -0.542  -0.539  -0.530  -0.525  -0.521  -0.516
 -0.509  -0.508  -0.503  -0.499  -0.487  -0.482  -0.480  -0.478
 -0.477  -0.471  -0.470  -0.467  -0.459  -0.454  -0.452  -0.451
 -0.449  -0.445  -0.441  -0.441  -0.436  -0.434  -0.433  -0.432
 -0.431  -0.430  -0.428  -0.422  -0.421  -0.414  -0.414  -0.411
 -0.409  -0.405  -0.404  -0.403  -0.400  -0.399  -0.397  -0.396
 -0.396  -0.396  -0.393  -0.393  -0.388  -0.386  -0.382  -0.381
 -0.378  -0.373  -0.372  -0.370  -0.365  -0.362  -0.362  -0.358
 -0.356  -0.354  -0.351  -0.350  -0.349  -0.347  -0.342  -0.339
 -0.337  -0.336  -0.335  -0.330  -0.329  -0.329  -0.323  -0.321
 -0.320  -0.314  -0.314  -0.312  -0.307  -0.304  -0.302  -0.297
 -0.296  -0.295  -0.294  -0.290  -0.289  -0.288  -0.285  -0.280
 -0.277  -0.271  -0.266  -0.265  -0.257  -0.254  -0.247  -0.246
 -0.244  -0.243  -0.236  -0.231  -0.199  -0.194
 -- Virtual --
 -0.121  -0.115  -0.077  -0.074  -0.043  -0.032  -0.025  -0.023
 -0.020  -0.018  -0.015  -0.011  -0.006  -0.005  -0.003  -0.001
  0.002   0.006   0.007   0.017   0.020   0.029   0.030   0.034
  0.046   0.054   0.055   0.057   0.062   0.066   0.087   0.090
  0.090   0.094   0.097   0.099   0.105   0.106   0.109   0.112
  0.113   0.116   0.118   0.119   0.121   0.122   0.123   0.126
  0.128   0.130   0.132   0.134   0.136   0.139   0.143   0.144
  0.148   0.155   0.156   0.157   0.158   0.160   0.161   0.167
  0.167   0.167   0.169   0.170   0.172   0.177   0.182   0.182
  0.185   0.186   0.188   0.192   0.196   0.196   0.197   0.200
  0.201   0.203   0.209   0.210   0.213   0.218   0.220   0.222
  0.224   0.225   0.226   0.228   0.229   0.230   0.231   0.236
  0.238   0.239   0.241   0.244   0.246   0.251   0.253   0.253
  0.256   0.262   0.267   0.270   0.272   0.275   0.276   0.278
  0.282   0.283   0.287   0.289   0.292   0.295   0.298   0.300
  0.305   0.309   0.310   0.319   0.320   0.321   0.322   0.325
  0.327   0.333   0.336   0.336   0.340   0.342   0.346   0.351
  0.356   0.357   0.358   0.360   0.363   0.365   0.367   0.371
  0.373   0.377   0.381   0.386   0.388   0.391   0.394   0.396
  0.400   0.416   0.416   0.419   0.420   0.424   0.425   0.432
  0.438   0.442   0.450   0.452   0.454   0.462   0.466   0.467
  0.474   0.480   0.483   0.486   0.489   0.492   0.494   0.496
  0.501   0.502   0.504   0.505   0.508   0.512   0.514   0.517
  0.520   0.522   0.522   0.524   0.528   0.531   0.533   0.535
  0.537   0.537   0.539   0.540   0.544   0.546   0.547   0.549
  0.552   0.554   0.555   0.557   0.560   0.561   0.562   0.563
  0.566   0.567   0.571   0.573   0.575   0.579   0.581   0.585
  0.588   0.591   0.593   0.595   0.596   0.597   0.598   0.600
  0.600   0.602   0.605   0.606   0.608   0.611   0.615   0.616
  0.618   0.620   0.622   0.624   0.626   0.627   0.628   0.631
  0.632   0.633   0.638   0.641   0.642   0.645   0.645   0.646
  0.650   0.651   0.654   0.656   0.659   0.661   0.664   0.669
  0.672   0.677   0.682   0.684   0.685   0.693   0.694   0.698
  0.699   0.703   0.705   0.714   0.715   0.717   0.720   0.721
  0.726   0.730   0.733   0.735   0.736   0.737   0.740   0.741
  0.749   0.750   0.754   0.757   0.764   0.766   0.767   0.768
  0.774   0.780   0.783   0.785   0.787   0.789   0.792   0.794
  0.796   0.796   0.799   0.799   0.804   0.806   0.810   0.811
  0.812   0.815   0.816   0.818   0.819   0.823   0.824   0.825
  0.826   0.829   0.831   0.832   0.833   0.834   0.835   0.838
  0.840   0.841   0.842   0.845   0.846   0.846   0.850   0.851
  0.851   0.855   0.860   0.860   0.863   0.863   0.867   0.868
  0.870   0.871   0.874   0.879   0.881   0.883   0.886   0.888
  0.888   0.890   0.893   0.895   0.904   0.906   0.907   0.908
  0.910   0.914   0.915   0.918   0.919   0.920   0.923   0.925
  0.925   0.927   0.928   0.930   0.932   0.934   0.938   0.938
  0.941   0.943   0.946   0.948   0.952   0.955   0.956   0.957
  0.959   0.963   0.964   0.967   0.968   0.972   0.974   0.977
  0.981   0.984   0.987   0.989   0.992   0.994   1.002   1.003
  1.006   1.006   1.008   1.010   1.012   1.016   1.020   1.023
  1.026   1.027   1.029   1.033   1.037   1.042   1.044   1.045
  1.048   1.050   1.053   1.054   1.059   1.064   1.068   1.073
  1.074   1.079   1.084   1.095   1.096   1.100   1.106   1.111
  1.118   1.121   1.125   1.127   1.132   1.134   1.138   1.141
  1.151   1.153   1.156   1.159   1.165   1.167   1.174   1.181
  1.184   1.187   1.192   1.195   1.203   1.205   1.219   1.220
  1.228   1.230   1.238   1.245   1.255   1.259   1.261   1.266
  1.268   1.274   1.278   1.280   1.286   1.287   1.297   1.301
  1.305   1.312   1.314   1.315   1.317   1.325   1.327   1.335
  1.338   1.342   1.344   1.345   1.347   1.353   1.355   1.367
  1.372   1.380   1.380   1.385   1.389   1.392   1.397   1.404
  1.406   1.411   1.416   1.422   1.427   1.434   1.441   1.443
  1.448   1.449   1.456   1.457   1.462   1.468   1.471   1.472
  1.473   1.476   1.479   1.479   1.487   1.493   1.499   1.504
  1.514   1.523   1.528   1.530   1.536   1.544   1.548   1.554
  1.566   1.572   1.581   1.584   1.587   1.593   1.594   1.613
  1.621   1.623   1.628   1.629   1.633   1.638   1.640   1.645
  1.656   1.657   1.658   1.661   1.672   1.675   1.676   1.685
  1.688   1.689   1.696   1.701   1.703   1.704   1.705   1.709
  1.710   1.717   1.719   1.721   1.728   1.731   1.740   1.749
  1.750   1.751   1.755   1.763   1.764   1.764   1.768   1.770
  1.772   1.776   1.777   1.780   1.793   1.796   1.801   1.812
  1.815   1.817   1.822   1.826   1.827   1.837   1.837   1.838
  1.842   1.848   1.851   1.852   1.855   1.856   1.860   1.865
  1.874   1.875   1.877   1.881   1.881   1.883   1.888   1.890
  1.897   1.898   1.898   1.903   1.904   1.914   1.915   1.923
  1.926   1.927   1.931   1.932   1.936   1.939   1.941   1.947
  1.963   1.965   1.969   1.973   1.974   1.976   1.984   1.987
  1.992   1.996   2.004   2.007   2.018   2.025   2.031   2.035
  2.041   2.044   2.049   2.051   2.052   2.060   2.060   2.061
  2.066   2.071   2.074   2.085   2.085   2.094   2.096   2.097
  2.099   2.106   2.108   2.111   2.117   2.120   2.128   2.134
  2.135   2.138   2.145   2.147   2.150   2.152   2.154   2.155
  2.162   2.164   2.166   2.177   2.180   2.182   2.183   2.191
  2.193   2.198   2.199   2.204   2.204   2.207   2.214   2.216
  2.218   2.225   2.236   2.242   2.243   2.247   2.249   2.251
  2.254   2.255   2.258   2.262   2.265   2.271   2.274   2.278
  2.280   2.282   2.284   2.289   2.291   2.294   2.297   2.304
  2.306   2.310   2.313   2.313   2.322   2.324   2.328   2.332
  2.341   2.341   2.345   2.346   2.348   2.355   2.357   2.360
  2.362   2.363   2.372   2.373   2.379   2.382   2.388   2.391
  2.393   2.401   2.402   2.405   2.407   2.409   2.412   2.421
  2.423   2.424   2.430   2.431   2.436   2.438   2.438   2.443
  2.451   2.456   2.458   2.459   2.468   2.472   2.474   2.477
  2.477   2.478   2.483   2.485   2.488   2.499   2.499   2.503
  2.509   2.509   2.512   2.517   2.520   2.524   2.529   2.531
  2.538   2.543   2.544   2.552   2.556   2.558   2.560   2.566
  2.573   2.579   2.581   2.590   2.592   2.598   2.600   2.603
  2.606   2.612   2.617   2.621   2.631   2.634   2.641   2.642
  2.643   2.649   2.655   2.660   2.663   2.664   2.672   2.677
  2.681   2.683   2.683   2.684   2.685   2.691   2.691   2.696
  2.703   2.703   2.710   2.716   2.717   2.727   2.730   2.739
  2.742   2.748   2.760   2.768   2.775   2.783   2.784   2.789
  2.793   2.800   2.811   2.812   2.820   2.823   2.827   2.846
  2.851   2.852   2.855   2.867   2.870   2.873   2.875   2.878
  2.882   2.887   2.893   2.898   2.898   2.901   2.904   2.913
  2.915   2.920   2.922   2.930   2.933   2.935   2.938   2.947
  2.950   2.956   2.967   2.970   2.977   2.987   3.019   3.036
  3.037   3.047   3.063   3.066   3.069   3.071   3.092   3.133
  3.170   3.172   3.173   3.179   3.198   3.204   3.224   3.231
  3.242   3.244   3.245   3.262   3.268   3.276   3.278   3.282
  3.283   3.303   3.308   3.313   3.317   3.332   3.337   3.344
  3.347   3.353   3.360   3.370   3.389   3.401   3.425   3.428
  3.439   3.459   3.462   3.463   3.475   3.479   3.515   3.530
  3.545   3.557   3.570   3.577   3.583   3.595   3.598   3.604
  3.624   3.626   3.700   3.723   3.841   3.858   3.918   3.928
  3.933   3.936   3.943   3.949   3.964   3.967   3.977   3.992
  4.013   4.030   4.051   4.071   4.084   4.089   4.105   4.126
  4.131   4.137   4.143   4.145   4.150   4.154   4.162   4.184
  4.200   4.210   4.231   4.247   4.254   4.261   4.266   4.267
  4.286   4.292   4.307   4.314   4.372   4.376   4.387   4.393
  4.419   4.427   4.446   4.448   4.457   4.460   4.482   4.497
  4.504   4.512   4.521   4.536   4.577   4.598   4.635   4.651
  4.685   4.691   4.708   4.719   4.720   4.766   4.790   4.804
 --------------------------------------------------------------
 
          Ground-State Mulliken Net Atomic Charges

     Atom                 Charge (a.u.)
  ----------------------------------------
      1 C                     0.260062
      2 C                    -0.131163
      3 N                    -0.462397
      4 C                    -0.063678
      5 C                     0.081081
      6 C                     0.017325
      7 C                     0.024158
      8 C                     0.064787
      9 C                     0.263031
     10 N                    -0.518808
     11 N                    -0.568127
     12 C                     0.169890
     13 C                     0.319105
     14 S                     0.610424
     15 N                    -0.528152
     16 C                    -0.216512
     17 S                     0.339625
     18 C                    -0.142136
     19 C                    -0.200474
     20 S                     0.285483
     21 C                     0.152880
     22 C                     0.050981
     23 C                    -0.311736
     24 C                    -0.072729
     25 N                    -0.428662
     26 S                     0.241789
     27 C                     0.133403
     28 C                    -0.309180
     29 C                    -0.214620
     30 H                     0.071456
     31 H                     0.101202
     32 H                     0.099874
     33 H                     0.117324
     34 H                     0.140853
     35 H                     0.115098
     36 H                     0.117158
     37 H                     0.134420
     38 H                     0.124315
     39 C                    -0.173913
     40 H                     0.096563
     41 H                     0.118685
     42 H                     0.097280
     43 C                    -0.187105
     44 H                     0.084319
     45 C                    -0.174195
     46 H                     0.090918
     47 H                     0.092353
     48 H                     0.095485
     49 C                    -0.180339
     50 H                     0.089478
     51 C                    -0.328323
     52 H                     0.097273
     53 H                     0.104272
     54 H                     0.106666
     55 H                     0.103080
     56 C                     0.286187
     57 C                    -0.115003
     58 N                    -0.488804
     59 C                    -0.104559
     60 C                     0.067962
     61 C                     0.062520
     62 C                     0.038332
     63 C                     0.066427
     64 C                     0.227955
     65 N                    -0.506011
     66 N                    -0.556073
     67 C                     0.221703
     68 C                     0.245049
     69 S                     0.606949
     70 N                    -0.552181
     71 C                    -0.196291
     72 S                     0.328919
     73 C                    -0.105533
     74 C                    -0.211310
     75 S                     0.294545
     76 C                     0.121233
     77 C                     0.056547
     78 C                    -0.296990
     79 C                    -0.089598
     80 N                    -0.432067
     81 S                     0.274761
     82 C                     0.113662
     83 C                    -0.313150
     84 C                    -0.249290
     85 H                     0.094456
     86 H                     0.089688
     87 H                     0.123746
     88 H                     0.117709
     89 H                     0.129309
     90 H                     0.118734
     91 H                     0.118618
     92 H                     0.141596
     93 H                     0.113150
     94 C                    -0.173794
     95 H                     0.107084
     96 H                     0.119938
     97 H                     0.097794
     98 C                    -0.188710
     99 H                     0.087603
    100 C                    -0.154239
    101 H                     0.087680
    102 H                     0.094407
    103 H                     0.092935
    104 C                    -0.175199
    105 H                     0.093551
    106 C                    -0.315163
    107 H                     0.088735
    108 H                     0.097871
    109 H                     0.095533
    110 H                     0.101227
  ----------------------------------------
  Sum of atomic charges =     0.000000

 -----------------------------------------------------------------
                    Cartesian Multipole Moments
 -----------------------------------------------------------------
    Charge (ESU x 10^10)
                 0.0000
    Dipole Moment (Debye)
         X       1.4129      Y       1.1127      Z      -1.5003
       Tot       2.3420
    Quadrupole Moments (Debye-Ang)
        XX    -472.0990     XY       4.8692     YY    -389.5226
        XZ      -9.1839     YZ       9.1073     ZZ    -453.3060
    Octopole Moments (Debye-Ang^2)
       XXX      48.8646    XXY     -35.1649    XYY      60.2630
       YYY     191.1306    XXZ    -113.0442    XYZ      24.1002
       YYZ     -63.0576    XZZ       1.9050    YZZ     -32.1232
       ZZZ     -12.0373
    Hexadecapole Moments (Debye-Ang^3)
      XXXX -205638.8751   XXXY     167.7637   XXYY  -37312.5145
      XYYY      75.2241   YYYY  -39915.1012   XXXZ     536.6137
      XXYZ     742.2368   XYYZ    -297.0147   YYYZ    -253.0416
      XXZZ  -33172.6830   XYZZ    -204.6293   YYZZ   -8212.7119
      XZZZ     -92.2169   YZZZ       3.7533   ZZZZ   -6193.3211
 -----------------------------------------------------------------
Archival summary:
1\1\mn426\SP\ProcedureUnspecified\6-31G**\8105042\afmv_a\SatOct615:26:332018SatOct615:26:332018\0\\#,ProcedureUnspecified,6-31G**,\\0,1\S\C,1,1.74107\H,2,1.08166,1,119.303\C,2,1.41194,1,111.224,3,-175.418,0\H,4,1.0813,2,124.669,1,177.197,0\N,4,1.40519,2,115.197,1,-2.64437,0\C,6,1.3087,4,107.985,2,9.24682,0\C,7,1.42508,6,117.879,4,177.515,0\C,8,1.38874,7,126.803,6,165.236,0\C,9,1.40663,8,116.044,7,175.764,0\C,10,1.35587,9,114.636,8,-7.81629,0\C,11,1.41628,10,126.288,9,-171.865,0\N,12,1.35758,11,117.355,10,142.849,0\C,13,1.31448,12,125.074,11,170.989,0\H,14,1.08868,13,112.308,12,176.81,0\C,12,1.41941,11,124.138,10,-43.621,0\N,16,1.36191,12,127.732,11,2.56569,0\C,9,1.42217,8,132.997,7,-8.2046,0\H,18,1.08331,9,129.774,8,4.85636,0\C,18,1.39006,9,109.458,8,175.478,0\H,20,1.08243,18,129.321,9,-173.1,0\C,16,1.43021,12,118.011,11,-167.998,0\N,22,1.34498,16,115.234,12,177.338,0\C,22,1.41966,16,123.163,12,-2.53291,0\C,24,1.50846,22,124.788,16,-176.174,0\C,25,1.41575,24,129.326,22,-15.681,0\H,26,1.0889,25,115.73,24,4.16897,0\N,26,1.32667,25,126.52,24,175.705,0\C,28,1.3299,26,121.118,25,6.17158,0\C,29,1.40549,28,120.946,26,-0.750847,0\H,30,1.08609,29,120.684,28,175.117,0\C,30,1.42122,29,115.686,28,-4.56104,0\H,32,1.08662,30,112.589,29,-174.557,0\C,29,1.52081,28,117.509,26,173.477,0\H,34,1.09697,29,108.647,28,131.786,0\H,34,1.09741,29,104.731,28,-115.554,0\C,34,1.54825,29,118.866,28,5.71755,0\H,37,1.09638,34,106.482,29,-38.5648,0\H,37,1.09658,34,106.896,29,76.5013,0\C,37,1.59214,34,111.505,29,-165.269,0\H,40,1.09698,37,111.375,34,52.5592,0\H,40,1.09739,37,110.008,34,-59.4366,0\C,40,1.54723,37,111.33,34,-176.603,0\H,43,1.09652,40,112.911,37,-63.2708,0\H,43,1.09727,40,102.611,37,51.5387,0\C,43,1.46155,40,108.286,37,166.721,0\H,46,1.09648,43,114.436,40,74.8828,0\H,46,1.09731,43,111.962,40,-45.5325,0\C,46,1.50912,43,115.4,40,-167.55,0\H,49,1.09703,46,117.407,43,44.5997,0\H,49,1.09716,46,100.59,43,159.557,0\H,49,1.09761,46,109.312,43,-83.0148,0\S,17,1.65262,16,104.989,12,-176.443,0\S,20,1.69647,18,117.879,9,4.87378,0\S,11,1.77589,10,109.172,9,7.95638,0\H,1,3.21134,2,101.236,3,80.9798,0\C,56,1.08471,1,101.826,2,3.34442,0\C,57,1.4056,56,125.13,1,88.4442,0\H,58,1.08176,57,126.004,56,-10.3701,0\C,57,1.43836,56,122.102,1,-95.8929,0\C,60,1.34472,57,134.361,56,-11.3473,0\C,61,1.36254,60,122.421,57,10.5963,0\N,62,1.28475,61,112.719,60,-162.235,0\C,63,1.37885,62,111.436,61,-167.247,0\H,64,1.08202,63,118.261,62,170.721,0\C,64,1.33822,63,116.13,62,-7.27982,0\H,66,1.0815,64,132.147,63,170.725,0\C,60,1.41843,57,108.844,56,175.715,0\C,68,1.39804,60,114.276,57,169.204,0\C,69,1.49466,68,126.411,60,178.67,0\N,70,1.35109,69,116.23,68,0.206017,0\C,71,1.32633,70,120.028,69,175.57,0\H,72,1.08918,71,112.5,70,-170.598,0\C,72,1.35299,71,123.725,70,1.55174,0\C,74,1.37134,72,120.598,71,4.84391,0\N,75,1.3507,74,127.116,72,-178.858,0\C,75,1.44577,74,118.5,72,-9.48698,0\N,77,1.36851,75,113.81,74,-172.696,0\C,74,1.48651,72,117.523,71,-176.704,0\C,79,1.36148,74,120.081,72,59.8351,0\H,80,1.08642,79,124.454,74,-9.83147,0\C,80,1.39863,79,118.85,74,170.451,0\H,82,1.08616,80,114.265,79,175.924,0\C,82,1.39762,80,126.988,79,7.8208,0\N,84,1.34757,82,115.585,80,-9.87142,0\C,85,1.35077,84,117.707,82,7.99269,0\H,86,1.08917,85,110.839,84,175.572,0\C,84,1.5492,82,128.969,80,173.303,0\H,88,1.09713,84,115.105,82,105.773,0\H,88,1.09728,84,101.521,82,-10.8728,0\C,88,1.57466,84,109.242,82,-124.36,0\H,91,1.09671,88,110.134,84,-79.4259,0\H,91,1.09798,88,110.374,84,44.1703,0\C,91,1.55877,88,113.503,84,160.094,0\H,94,1.0969,91,114.381,88,-170.191,0\H,94,1.09691,91,107.853,88,-64.3359,0\C,94,1.55154,91,117.34,88,56.4269,0\H,97,1.09683,94,110.567,91,72.0768,0\H,97,1.09694,94,105.796,91,-39.885,0\C,97,1.56848,94,109.605,91,-163.045,0\H,100,1.09687,97,106.48,94,169.705,0\H,100,1.09735,97,112.848,94,56.8966,0\S,78,1.58314,77,106.569,75,0.777387,0\C,100,1.60183,97,116.337,94,-63.2851,0\H,104,1.09679,100,108.271,97,48.2216,0\H,104,1.09713,100,115.982,97,169.179,0\H,104,1.09743,100,114.429,97,-69.7687,0\S,68,1.74794,60,117.581,57,3.48953,0\S,69,1.76464,68,107.84,60,6.45283,0\S,62,1.77409,61,129.771,60,27.4558,0\\\@

 Total job time:  93.97s(wall), 1005.80s(cpu) 
 Sat Oct  6 15:26:33 2018

        *************************************************************
        *                                                           *
        *  Thank you very much for using Q-Chem.  Have a nice day.  *
        *                                                           *
        *************************************************************


