
Running Job 1 of 1 ./10/5.qcin
qchem ./10/5.qcin_31503.0 /tmpu/cab_g/afmv_a/scratch_qchem/qchem31503/ 1
/tmpu/appuserlic/qchem4.4/serial-multicore/exe/qcprog.exe_s ./10/5.qcin_31503.0 /tmpu/cab_g/afmv_a/scratch_qchem/qchem31503/
Check license passed

                  Welcome to Q-Chem
     A Quantum Leap Into The Future Of Chemistry


 Q-Chem 4.4, Q-Chem, Inc., Pleasanton, CA (2016)

 Y. Shao,  Z. Gan,  E. Epifanovsky,  A. T. B. Gilbert,  M. Wormit,  
 J. Kussmann,  A. W. Lange,  A. Behn,  J. Deng,  X. Feng,  D. Ghosh,  
 M. Goldey,  P. R. Horn,  L. D. Jacobson,  I. Kaliman,  F. Rob,  
 R. Z. Khaliullin,  T. Kus,  A. Landau,  J. Liu,  E. I. Proynov,  Y. M. Rhee,  
 R. M. Richard,  M. A. Rohrdanz,  R. P. Steele,  E. J. Sundstrom,  
 H. L. Woodcock III,  P. M. Zimmerman,  D. Zuev,  B. Albrecht,  E. Alguire,  
 B. Austin,  S. A. Baeppler,  G. J. O. Beran,  Y. A. Bernard,  E. Berquist,  
 K. Brandhorst,  K. B. Bravaya,  S. T. Brown,  D. Casanova,  C.-M. Chang,  
 Y. Chen,  S. H. Chien,  K. D. Closser,  M. P. Coons,  D. L. Crittenden,  
 S. Dasgupta,  M. Diedenhofen,  R. A. DiStasio Jr.,  H. Do,  A. D. Dutoi,  
 R. G. Edgar,  P.-T. Fang,  S. Fatehi,  Q. Feng,  L. Fusti-Molnar,  
 A. Ghysels,  A. Golubeva-Zadorozhnaya,  J. Gomes,  A. Gunina,  
 M. W. D. Hanson-Heine,  P. H. P. Harbach,  A. W. Hauser,  J. E. Herr,  
 E. G. Hohenstein,  Z. C. Holden,  K. Hui,  T.-C. Jagau,  H. Ji,  B. Kaduk,  
 K. Khistyaev,  Jaehoon Kim,  Jihan Kim,  R. A. King,  P. Klunzinger,  
 K. Koh,  D. Kosenkov,  T. Kowalczyk,  C. M. Krauter,  A. Kunitsa,  
 K. U. Lao,  A. Laurent,  K. V. Lawler,  J. Lee,  D. Lefrancois,  S. Lehtola,  
 S. V. Levchenko,  C. Y. Lin,  Y.-S. Lin,  F. Liu,  E. Livshits,  
 R. C. Lochan,  A. Luenser,  P. Manohar,  S. F. Manzer,  S.-P. Mao,  Y. Mao,  
 N. Mardirossian,  A. V. Marenich,  L. A. Martinez-Martinez,  S. A. Maurer,  
 N. J. Mayhall,  J.-M. Mewes,  A. F. Morrison,  K. Nanda,  T. S. Nguyen-Beck,  
 C. M. Oana,  R. Olivares-Amaya,  D. P. O'Neill,  J. A. Parkhill,  
 T. M. Perrine,  R. Peverati,  P. A. Pieniazek,  F. Plasser,  A. Prociuk,  
 D. R. Rehn,  E. Rosta,  N. J. Russ,  N. Sergueev,  S. M. Sharada,  
 S. Sharma,  D. W. Small,  A. Sodt,  T. Stauch,  T. Stein,  D. Stuck,  
 Y.-C. Su,  A. J. W. Thom,  T. Tsuchimochi,  L. Vogt,  O. Vydrov,  T. Wang,  
 M. A. Watson,  J. Wenzel,  A. White,  C. F. Williams,  V. Vanovschi,  
 K. Yao,  S. Yeganeh,  S. R. Yost,  Z.-Q. You,  I. Y. Zhang,  X. Zhang,  
 Y. Zhao,  B. R. Brooks,  G. K. L. Chan,  D. M. Chipman,  C. J. Cramer,  
 W. A. Goddard III,  M. S. Gordon,  W. J. Hehre,  A. Klamt,  
 H. F. Schaefer III,  M. W. Schmidt,  C. D. Sherrill,  D. G. Truhlar,  
 A. Warshel,  X. Xu,  A. Aspuru-Guzik,  R. Baer,  A. T. Bell,  N. A. Besley,  
 J.-D. Chai,  A. Dreuw,  B. D. Dunietz,  T. R. Furlani,  S. R. Gwaltney,  
 C.-P. Hsu,  Y. Jung,  J. Kong,  D. S. Lambrecht,  W. Liang,  C. Ochsenfeld,  
 V. A. Rassolov,  L. V. Slipchenko,  J. E. Subotnik,  T. Van Voorhis,  
 J. M. Herbert,  A. I. Krylov,  P. M. W. Gill,  M. Head-Gordon

 Contributors to earlier versions of Q-Chem not listed above: 
 R. D. Adamson,  J. Baker,  E. F. C. Byrd,  A. K. Chakraborty,  C.-L. Cheng,  
 H. Dachsel,  R. J. Doerksen,  G. Hawkins,  A. Heyden,  S. Hirata,  
 G. Kedziora,  F. J. Keil,  C. Kelley,  P. P. Korambath,  W. Kurlancheek,  
 A. M. Lee,  M. S. Lee,  D. Liotard,  I. Lotan,  P. E. Maslen,  N. Nair,  
 D. Neuhauser,  R. Olson,  B. Peters,  J. Ritchie,  N. E. Schultz,  
 N. Shenvi,  A. C. Simmonett,  K. S. Thanthiriwatte,  Q. Wu,  W. Zhang

 Please cite Q-Chem as follows:
 Y. Shao et al., Mol. Phys. 113, 184-215 (2015)
 DOI: 10.1080/00268976.2014.952696

 Q-Chem 4.4.2 for Intel X86 Linux

 Parts of Q-Chem use Armadillo 5.200.1 (Boston Tea Smuggler).
 http://arma.sourceforge.net/

 Q-Chem begins on Sat Oct  6 15:54:53 2018  

Host: 
0

     Scratch files written to /tmpu/cab_g/afmv_a/scratch_qchem/qchem31503//
 Dec716 11556_ 22328  22283 4050   
Processing $rem in /tmpu/appuserlic/qchem4.4/serial-multicore/config/preferences.
 MEM_TOTAL  2000 
FILE_GEOM_ORG=        593

Checking the input file for inconsistencies... 	...done.

--------------------------------------------------------------
User input:
--------------------------------------------------------------
$comment
SP
$end

$rem
MEM_STATIC 5000
MEM_TOTAL 20000
JOBTYPE SP
EXCHANGE B3LYP
BASIS 6-31g(d,p)
$end

$molecule
0 1
C         -23.796000     18.906000     -8.901000
C         -22.719000     19.509000     -8.274000
N         -23.974000     17.563000     -8.817000
C         -21.852000     18.711000     -7.506000
C         -23.120000     16.792000     -8.128000
C         -22.048000     17.314000     -7.382000
C         -21.187000     16.491000     -6.462000
C         -21.096000     15.057000     -6.682000
C         -20.385000     16.924000     -5.345000
N         -20.441000     14.167000     -5.930000
N         -20.246000     18.268000     -5.054000
C         -19.825000     15.990000     -4.484000
C         -19.912000     14.599000     -4.749000
S         -19.256000     18.238000     -3.780000
N         -19.168000     16.647000     -3.459000
C         -19.369000     13.502000     -4.016000
S         -18.924000     11.943000     -4.661000
C         -19.093000     13.488000     -2.619000
C         -18.665000     11.273000     -3.080000
S         -19.767000     14.601000     -1.354000
C         -18.773000     12.245000     -2.126000
C         -18.472000      9.831000     -2.773000
C         -19.388000     13.327000     -0.179000
C         -18.854000     12.199000     -0.709000
N         -17.627000      9.629000     -1.788000
S         -18.844000      8.447000     -3.811000
C         -17.465000      8.251000     -1.589000
C         -18.013000      7.510000     -2.595000
C         -24.823000     19.780000     -9.681000
H         -22.532000     20.578000     -8.311000
H         -21.035000     19.232000     -7.016000
H         -23.283000     15.715000     -8.141000
H         -21.627000     14.701000     -7.564000
H         -19.761000     13.434000      0.831000
H         -18.594000     11.338000     -0.104000
H         -16.789000      7.842000     -0.850000
H         -17.815000      6.458000     -2.754000
H         -24.289000     20.696000     -9.961000
C         -26.032000     20.111000     -8.814000
H         -25.211000     19.183000    -10.515000
H         -25.708000     20.570000     -7.872000
H         -26.449000     19.121000     -8.594000
C         -27.062000     20.945000     -9.629000
H         -26.624000     21.914000     -9.900000
C         -28.214000     21.299000     -8.709000
H         -27.384000     20.457000    -10.556000
H         -27.834000     21.999000     -7.954000
H         -28.607000     20.426000     -8.172000
C         -29.569000     21.868000     -9.399000
H         -29.986000     21.074000    -10.032000
C         -29.105000     22.980000    -10.430000
H         -30.305000     22.346000     -8.742000
H         -28.403000     23.785000    -10.177000
H         -30.021000     23.417000    -10.846000
H         -28.786000     22.560000    -11.391000
C         -16.830000     26.150000     -0.261000
C         -17.849000     25.332000      0.202000
N         -15.705000     25.634000     -0.835000
C         -17.729000     23.955000      0.098000
C         -15.676000     24.336000     -1.080000
C         -16.705000     23.409000     -0.645000
C         -16.484000     21.889000     -0.788000
C         -17.090000     20.943000      0.071000
C         -15.826000     21.254000     -1.859000
N         -17.025000     19.578000     -0.073000
N         -15.245000     21.944000     -2.904000
C         -15.772000     19.881000     -2.056000
C         -16.443000     19.029000     -1.156000
S         -14.360000     20.899000     -3.741000
N         -14.922000     19.511000     -3.070000
C         -16.381000     17.542000     -1.251000
S         -15.603000     16.695000     -2.593000
C         -16.660000     16.715000     -0.187000
C         -15.642000     15.150000     -1.655000
S         -17.377000     16.900000      1.306000
C         -16.256000     15.325000     -0.461000
C         -15.369000     13.863000     -2.223000
C         -17.200000     15.137000      1.623000
C         -16.540000     14.426000      0.622000
N         -14.884000     13.879000     -3.450000
S         -15.287000     12.308000     -1.456000
C         -14.469000     12.579000     -3.823000
C         -14.591000     11.601000     -2.889000
C         -16.902000     27.662000     -0.049000
H         -18.608000     25.650000      0.911000
H         -18.492000     23.294000      0.499000
H         -14.699000     24.024000     -1.444000
H         -17.658000     21.261000      0.943000
H         -17.520000     14.736000      2.575000
H         -16.346000     13.361000      0.552000
H         -13.914000     12.335000     -4.719000
H         -14.102000     10.639000     -2.965000
H         -16.543000     28.121000     -0.979000
C         -16.156000     28.209000      1.165000
H         -17.953000     27.951000      0.071000
H         -16.033000     29.262000      0.882000
H         -15.218000     27.650000      1.263000
C         -17.041000     28.222000      2.394000
H         -18.044000     28.634000      2.226000
C         -16.332000     29.014000      3.575000
H         -17.062000     27.169000      2.698000
H         -16.245000     30.085000      3.354000
H         -15.290000     28.685000      3.678000
C         -17.155000     29.014000      4.925000
H         -17.259000     28.017000      5.371000
C         -18.589000     29.567000      4.669000
H         -16.620000     29.676000      5.617000
H         -19.162000     29.631000      5.603000
H         -19.262000     28.840000      4.199000
H         -18.611000     30.540000      4.164000
$end

--------------------------------------------------------------
 ----------------------------------------------------------------
             Standard Nuclear Orientation (Angstroms)
    I     Atom           X                Y                Z
 ----------------------------------------------------------------
    1      C       1.0340046631    -7.7783101560    -1.0266686145
    2      C       0.1986677204    -6.7391832748    -1.3996223879
    3      N       2.3123608431    -7.5270910208    -0.6457704348
    4      C       0.6842087160    -5.4214998430    -1.3203928794
    5      C       2.7946967599    -6.2760597418    -0.6183696635
    6      C       2.0047962299    -5.1446134080    -0.8905283423
    7      C       2.4731400552    -3.7278336617    -0.6944691382
    8      C       3.9005979637    -3.4533247771    -0.7012361002
    9      C       1.6883874927    -2.5336514656    -0.5034866830
   10      N       4.4955572508    -2.2778685334    -0.4755038122
   11      N       0.3094541495    -2.5732724037    -0.5889911640
   12      C       2.3032157572    -1.3468301869    -0.1283620935
   13      C       3.7159400088    -1.2412412295    -0.0526246463
   14      S      -0.0894857253    -1.0288645745    -0.3445991973
   15      N       1.3404984991    -0.3717216237     0.0620631443
   16      C       4.5234106955    -0.1091108178     0.2664659692
   17      S       6.1589434167     0.1813462882    -0.2675737178
   18      C       4.1322173697     0.9902627027     1.0827543033
   19      C       6.3474503766     1.5459572489     0.7897077262
   20      S       2.7725367255     1.0388490408     2.2836614245
   21      C       5.1630958162     1.8418005320     1.4031773890
   22      C       7.6301098275     2.2343105465     1.0927200541
   23      C       3.6416229362     2.3778189830     3.0577354857
   24      C       4.8254818201     2.7018102980     2.4815863986
   25      N       7.4867175228     3.5298652067     1.2540605931
   26      S       9.2705265086     1.6354387776     0.8069409143
   27      C       8.7400838202     4.1108703637     1.4911996495
   28      C       9.7694400616     3.2477625573     1.2526799590
   29      C       0.4916302132    -9.2387001991    -1.0168768808
   30      H      -0.8306602956    -6.8870183135    -1.7122365859
   31      H      -0.0143335378    -4.6395069399    -1.6024492909
   32      H       3.8434800593    -6.1408320033    -0.3567706389
   33      H       4.5256293585    -4.3183620846    -0.9195643213
   34      H       3.2920683000     2.7271949256     4.0202457491
   35      H       5.4643205202     3.4883897116     2.8664551314
   36      H       8.8759150151     5.1761652973     1.6218694275
   37      H      10.8055490434     3.5462501964     1.1600932038
   38      H      -0.3520828495    -9.2522690631    -1.7172882983
   39      C       0.0330259240    -9.6442595789     0.3788790777
   40      H       1.3231316100    -9.9101690741    -1.2623233655
   41      H      -0.6907023212    -8.9166026608     0.7658594862
   42      H       0.9547968863    -9.5659102707     0.9675969039
   43      C      -0.4611844012   -11.1195166448     0.3715480571
   44      H      -1.3505276354   -11.2101329627    -0.2649291967
   45      C      -0.9608833793   -11.4552148370     1.7631038968
   46      H       0.2860713587   -11.8290458862    -0.0017267545
   47      H      -1.8688303858   -10.8652633664     1.9420298470
   48      H      -0.2399930721   -11.1847942805     2.5454956706
   49      C      -1.2094992517   -13.0225291445     2.1060353908
   50      H      -0.2419331188   -13.5383762045     2.0537707849
   51      C      -2.0297908517   -13.6159229142     0.8854590823
   52      H      -1.7890848482   -13.2539784740     3.0073348661
   53      H      -2.9264725342   -13.1386611813     0.4695009130
   54      H      -2.2618512173   -14.6558767191     1.1456994908
   55      H      -1.3893664828   -13.8970136719     0.0413461671
   56      C      -8.8296476463     1.0655853012    -0.6469736558
   57      C      -8.0914259459     0.8193498982     0.5003061041
   58      N      -8.2673073845     1.6427325288    -1.7478966811
   59      C      -6.7526808593     1.1754117400     0.5485405093
   60      C      -6.9584220827     1.8229601836    -1.7505909706
   61      C      -6.1072633515     1.5780465877    -0.6003991845
   62      C      -4.6288066932     2.0174928909    -0.6276545688
   63      C      -3.9092141013     2.3568692939     0.5415516401
   64      C      -3.7791380231     1.9651456030    -1.7495070156
   65      N      -2.5666404069     2.6443321081     0.5967513295
   66      N      -4.2004279672     1.5507411589    -2.9970925797
   67      C      -2.4135042476     2.2125920509    -1.7236488170
   68      C      -1.7900690850     2.5080122925    -0.4947466732
   69      S      -3.0399378861     1.9134433821    -4.0447227000
   70      N      -1.8487078256     2.2720481794    -2.9746747842
   71      C      -0.3437467886     2.8543895051    -0.3842358527
   72      S       0.7738057138     2.7674347965    -1.7506809789
   73      C       0.1796340403     3.5342437279     0.6917459054
   74      C       2.0007909211     3.7161722937    -0.8218136781
   75      S      -0.3496302762     3.9235555294     2.2233067447
   76      C       1.5548230404     3.9913714475     0.4266393948
   77      C       3.3682073949     3.8644749963    -1.2239336795
   78      C       1.2392278608     4.6848286532     2.5920614753
   79      C       2.1424060905     4.6972891512     1.5303478503
   80      N       3.6504062616     3.4276871072    -2.4366125898
   81      S       4.6419960674     4.7942099969    -0.4986108228
   82      C       4.9655772277     3.8074859528    -2.7935890130
   83      C       5.6568111172     4.5551534382    -1.8953056271
   84      C     -10.3311848656     0.7807938559    -0.6704643318
   85      H      -8.5300729136     0.6434259596     1.4783273746
   86      H      -6.1683103041     1.0376464980     1.4537602574
   87      H      -6.6373624542     2.3771938459    -2.6304288890
   88      H      -4.4076973874     2.4244573175     1.5064756125
   89      H       1.3882438771     5.1593418309     3.5523408466
   90      H       3.1669142793     5.0530468727     1.5062560531
   91      H       5.4007422476     3.6970365508    -3.7778701391
   92      H       6.5607844048     5.0968065472    -2.1398157595
   93      H     -10.5449188868     0.3346515965    -1.6501259329
   94      C     -11.2473191854     1.9685797398    -0.3887133742
   95      H     -10.5574794228     0.0219564616     0.0881387149
   96      H     -12.1888386647     1.6204371933    -0.8318440970
   97      H     -10.8129696545     2.8505365446    -0.8739160941
   98      C     -11.5260550642     2.1083057947     1.0933857923
   99      H     -11.7951681216     1.1699656586     1.5944575949
  100      C     -12.6650306515     3.1883485006     1.3402630192
  101      H     -10.5983984659     2.5441786610     1.4821454612
  102      H     -13.6379228622     2.8493275059     0.9634387743
  103      H     -12.4607661025     4.0932359036     0.7536892541
  104      C     -12.9693807638     3.4539067094     2.8688829350
  105      H     -12.1276947078     3.9066739652     3.4076847494
  106      C     -13.3152606136     2.1110000269     3.5792840693
  107      H     -13.8359742550     4.1256223071     2.9027485036
  108      H     -13.5868805106     2.2765168886     4.6298114607
  109      H     -12.4362042250     1.4968430924     3.8082581409
  110      H     -14.1077634404     1.5345251584     3.0874975349
 ----------------------------------------------------------------
 Molecular Point Group                 C1    NOp =  1
 Largest Abelian Subgroup              C1    NOp =  1
 Nuclear Repulsion Energy = 11753.6112912400 hartrees
 There are      270 alpha and      270 beta electrons
 Requested basis set is 6-31G(d,p)
 There are 406 shells and 1262 basis functions

 Total QAlloc Memory Limit  20000 MB
 Mega-Array Size      4888 MB
 MEM_STATIC part      5000 MB
 A cutoff of  1.0D-08 yielded  13897 shell pairs
 There are    150171 function pairs
 
 -------------------------------------------------------
 OpenMP Integral Computing Module                       
 Release: version 1.0, May 2013, Q-Chem Inc. Pittsburgh 
 -------------------------------------------------------
 Integral Job Info:
 Integral job number is                      11
 Integral operator is                         1
 short-range coefficients                     0
 long-range coefficients              100000000
 Omega coefficients                           0
 if combine SR and LR in K                    0
 Integral screening is                        0
 Integral computing path is                   2
 max size of driver memory is            800000
 size of driver memory is                593474
 size of scratch memory is             15166112
 max col of scratch BK array               1296
 max len of scratch array in speh3          155
 max len of scratch index in speh4           18
 max int batch size is                      520
 min int batch size is                       52
 fixed nKL is                                52
 max L of basis functions is                  2
 order of int derivative is                   0
 number of shells is                        406
 number of basis is                        1262
 number of cartesian basis is              1262
 number of contracted shell pairs         13897
 number of primitive shell pairs          44664
 maxK2 (contraction) of shell pair           36
 max number of K2 of shell pair               1
 max number of CS2 of shell pair           1572
 max number of PS2 of shell pair           8718
 mem total for path MDJ                  333208
 -------------------------------------------------------
 Smallest overlap matrix eigenvalue = 4.19E-04

 Scale SEOQF with 1.000000e-02/1.000000e-02/1.000000e-01

 Standard Electronic Orientation quadrupole field applied
 Nucleus-field energy     =    -0.0000000172 hartrees
 Guess from superposition of atomic densities
 Warning:  Energy on first SCF cycle will be non-variational
 A restricted hybrid HF-DFT SCF calculation will be
 performed using Pulay DIIS extrapolation
 Exchange:     0.2000 Hartree-Fock + 0.0800 Slater + 0.7200 B88
 Correlation:  0.1900 VWN1RPA + 0.8100 LYP
 Using SG-1 standard quadrature grid
 SCF converges when DIIS error is below 1.0E-05
 using 16 threads for integral computing 
 -------------------------------------------------------
 OpenMP BLAS3 based DFT computing Module                
 Release: version 1.0, May 2013, Q-Chem Inc. Pittsburgh 
 -------------------------------------------------------
 ---------------------------------------
  Cycle       Energy         DIIS Error
 ---------------------------------------
    1   -5679.9767687980      2.14E-02
    2   -5662.5208926821      2.11E-03
    3   -5661.2081204344      3.21E-03
    4   -5663.3417851234      8.09E-04
    5   -5663.4651844400      3.46E-04
    6   -5663.4816524330      2.04E-04
    7   -5663.4898240132      6.88E-05
    8   -5663.4907169247      2.65E-05
    9   -5663.4908380529      1.11E-05
   10   -5663.4908608832      3.77E-06 Convergence criterion met
 ---------------------------------------
 SCF time:  CPU 1106.17 s  wall 101.33 s
 SCF   energy in the final basis set = -5663.4908608832
 Total energy in the final basis set = -5663.4908608832
 
 --------------------------------------------------------------
 
                    Orbital Energies (a.u.)
 --------------------------------------------------------------
 
 Alpha MOs
 -- Occupied --
-88.989 -88.988 -88.933 -88.922 -88.917 -88.914 -88.912 -88.903
-14.385 -14.381 -14.380 -14.373 -14.349 -14.348 -14.347 -14.334
-14.328 -14.326 -10.274 -10.261 -10.259 -10.258 -10.258 -10.257
-10.253 -10.250 -10.242 -10.236 -10.236 -10.235 -10.234 -10.233
-10.232 -10.231 -10.229 -10.228 -10.228 -10.227 -10.227 -10.227
-10.226 -10.226 -10.226 -10.220 -10.220 -10.219 -10.219 -10.214
-10.207 -10.206 -10.205 -10.201 -10.201 -10.195 -10.192 -10.190
-10.187 -10.185 -10.184 -10.181 -10.181 -10.180 -10.179 -10.178
-10.178 -10.176 -10.175 -10.168  -8.044  -8.043  -7.994  -7.982
 -7.978  -7.973  -7.972  -7.963  -6.009  -6.008  -6.003  -6.002
 -6.002  -6.001  -5.958  -5.955  -5.951  -5.946  -5.943  -5.942
 -5.939  -5.939  -5.937  -5.937  -5.935  -5.933  -5.933  -5.929
 -5.928  -5.927  -5.924  -5.918  -1.034  -1.030  -0.971  -0.957
 -0.955  -0.951  -0.940  -0.932  -0.911  -0.903  -0.896  -0.889
 -0.842  -0.837  -0.829  -0.825  -0.810  -0.809  -0.807  -0.806
 -0.801  -0.800  -0.796  -0.790  -0.780  -0.779  -0.767  -0.761
 -0.747  -0.746  -0.743  -0.735  -0.725  -0.714  -0.707  -0.706
 -0.693  -0.691  -0.671  -0.670  -0.653  -0.646  -0.644  -0.642
 -0.633  -0.632  -0.623  -0.619  -0.614  -0.610  -0.596  -0.593
 -0.587  -0.586  -0.579  -0.578  -0.575  -0.574  -0.564  -0.561
 -0.553  -0.539  -0.537  -0.535  -0.520  -0.517  -0.513  -0.509
 -0.504  -0.504  -0.495  -0.491  -0.488  -0.484  -0.477  -0.475
 -0.471  -0.468  -0.467  -0.466  -0.462  -0.457  -0.448  -0.445
 -0.442  -0.439  -0.437  -0.435  -0.434  -0.433  -0.430  -0.428
 -0.427  -0.424  -0.421  -0.421  -0.420  -0.416  -0.414  -0.412
 -0.409  -0.405  -0.404  -0.400  -0.396  -0.395  -0.393  -0.391
 -0.390  -0.390  -0.389  -0.387  -0.386  -0.384  -0.382  -0.381
 -0.381  -0.378  -0.370  -0.365  -0.363  -0.357  -0.356  -0.354
 -0.350  -0.349  -0.346  -0.345  -0.342  -0.341  -0.341  -0.339
 -0.338  -0.333  -0.331  -0.329  -0.328  -0.326  -0.326  -0.322
 -0.315  -0.309  -0.308  -0.307  -0.302  -0.301  -0.298  -0.295
 -0.293  -0.291  -0.288  -0.288  -0.285  -0.278  -0.275  -0.274
 -0.273  -0.271  -0.267  -0.266  -0.257  -0.253  -0.252  -0.244
 -0.240  -0.237  -0.232  -0.226  -0.193  -0.188
 -- Virtual --
 -0.112  -0.108  -0.071  -0.067  -0.038  -0.037  -0.024  -0.020
 -0.018  -0.016  -0.010  -0.007  -0.003   0.000   0.003   0.006
  0.012   0.015   0.017   0.025   0.030   0.036   0.039   0.042
  0.048   0.056   0.062   0.066   0.077   0.082   0.088   0.089
  0.094   0.095   0.100   0.103   0.104   0.107   0.110   0.110
  0.112   0.115   0.116   0.119   0.119   0.122   0.124   0.126
  0.127   0.130   0.134   0.135   0.137   0.142   0.145   0.149
  0.150   0.150   0.156   0.156   0.158   0.162   0.163   0.165
  0.166   0.168   0.169   0.171   0.173   0.174   0.180   0.184
  0.185   0.187   0.188   0.189   0.191   0.193   0.200   0.203
  0.206   0.206   0.207   0.209   0.213   0.213   0.214   0.215
  0.218   0.224   0.224   0.225   0.228   0.229   0.232   0.235
  0.236   0.241   0.242   0.243   0.246   0.248   0.250   0.252
  0.256   0.259   0.260   0.265   0.268   0.273   0.273   0.278
  0.280   0.283   0.292   0.297   0.297   0.301   0.303   0.304
  0.307   0.312   0.315   0.316   0.318   0.321   0.325   0.329
  0.331   0.332   0.335   0.339   0.341   0.345   0.349   0.351
  0.352   0.355   0.358   0.360   0.362   0.366   0.369   0.372
  0.379   0.380   0.384   0.393   0.398   0.400   0.405   0.405
  0.413   0.418   0.423   0.424   0.427   0.428   0.432   0.440
  0.442   0.452   0.456   0.460   0.464   0.466   0.470   0.473
  0.475   0.478   0.485   0.488   0.493   0.494   0.495   0.499
  0.502   0.503   0.508   0.509   0.511   0.514   0.516   0.519
  0.521   0.522   0.526   0.527   0.529   0.532   0.534   0.536
  0.537   0.540   0.541   0.542   0.544   0.547   0.551   0.554
  0.555   0.558   0.560   0.562   0.563   0.566   0.567   0.569
  0.570   0.573   0.575   0.576   0.579   0.581   0.582   0.588
  0.591   0.594   0.596   0.598   0.599   0.601   0.604   0.605
  0.606   0.609   0.611   0.612   0.614   0.617   0.619   0.620
  0.621   0.624   0.625   0.627   0.628   0.631   0.634   0.635
  0.639   0.640   0.643   0.645   0.646   0.648   0.650   0.652
  0.653   0.656   0.657   0.661   0.664   0.666   0.667   0.671
  0.671   0.673   0.681   0.683   0.686   0.693   0.696   0.697
  0.703   0.709   0.713   0.716   0.719   0.720   0.726   0.733
  0.734   0.736   0.739   0.740   0.742   0.746   0.750   0.754
  0.757   0.759   0.762   0.763   0.766   0.767   0.774   0.779
  0.781   0.781   0.784   0.790   0.791   0.794   0.797   0.798
  0.801   0.804   0.805   0.806   0.810   0.812   0.814   0.816
  0.818   0.820   0.822   0.822   0.825   0.827   0.828   0.831
  0.832   0.833   0.834   0.835   0.836   0.839   0.842   0.843
  0.846   0.847   0.850   0.853   0.854   0.856   0.860   0.862
  0.863   0.865   0.866   0.868   0.869   0.872   0.873   0.875
  0.877   0.879   0.881   0.885   0.885   0.890   0.893   0.896
  0.898   0.900   0.903   0.905   0.907   0.908   0.910   0.911
  0.914   0.917   0.920   0.923   0.925   0.928   0.931   0.931
  0.934   0.937   0.938   0.941   0.943   0.946   0.947   0.948
  0.949   0.953   0.955   0.956   0.957   0.959   0.963   0.964
  0.965   0.967   0.969   0.972   0.974   0.978   0.984   0.985
  0.989   0.991   0.993   0.998   1.000   1.003   1.006   1.012
  1.018   1.019   1.019   1.024   1.025   1.029   1.034   1.035
  1.038   1.041   1.043   1.045   1.051   1.052   1.059   1.059
  1.063   1.066   1.069   1.075   1.081   1.082   1.085   1.091
  1.095   1.097   1.103   1.106   1.113   1.119   1.123   1.125
  1.128   1.129   1.135   1.137   1.141   1.149   1.150   1.154
  1.155   1.162   1.164   1.172   1.177   1.181   1.186   1.195
  1.198   1.201   1.206   1.212   1.216   1.223   1.227   1.237
  1.241   1.247   1.251   1.255   1.258   1.262   1.266   1.273
  1.281   1.283   1.285   1.288   1.293   1.294   1.299   1.301
  1.306   1.316   1.317   1.319   1.324   1.330   1.332   1.334
  1.337   1.342   1.349   1.355   1.358   1.364   1.373   1.373
  1.381   1.388   1.391   1.397   1.399   1.408   1.408   1.414
  1.416   1.417   1.420   1.422   1.426   1.428   1.431   1.435
  1.448   1.453   1.460   1.462   1.463   1.469   1.471   1.474
  1.477   1.479   1.480   1.482   1.488   1.492   1.505   1.511
  1.519   1.522   1.528   1.532   1.536   1.544   1.551   1.553
  1.558   1.564   1.570   1.573   1.580   1.582   1.586   1.593
  1.602   1.605   1.620   1.621   1.628   1.644   1.648   1.652
  1.656   1.659   1.661   1.669   1.672   1.674   1.680   1.684
  1.685   1.687   1.688   1.690   1.692   1.699   1.701   1.709
  1.714   1.717   1.722   1.725   1.733   1.736   1.738   1.744
  1.748   1.751   1.754   1.756   1.757   1.772   1.774   1.785
  1.787   1.788   1.799   1.802   1.804   1.807   1.812   1.816
  1.824   1.825   1.830   1.833   1.838   1.841   1.844   1.846
  1.855   1.856   1.858   1.863   1.868   1.871   1.875   1.877
  1.882   1.884   1.887   1.894   1.895   1.897   1.903   1.903
  1.908   1.911   1.917   1.921   1.922   1.930   1.932   1.933
  1.940   1.942   1.946   1.948   1.949   1.953   1.957   1.959
  1.961   1.963   1.968   1.974   1.977   1.987   1.991   1.997
  2.002   2.006   2.008   2.016   2.022   2.032   2.033   2.040
  2.042   2.045   2.047   2.048   2.050   2.057   2.060   2.062
  2.070   2.071   2.079   2.081   2.082   2.084   2.089   2.093
  2.097   2.098   2.104   2.113   2.117   2.123   2.124   2.129
  2.132   2.140   2.144   2.151   2.151   2.156   2.161   2.161
  2.164   2.166   2.169   2.171   2.177   2.182   2.184   2.189
  2.190   2.192   2.196   2.198   2.204   2.211   2.215   2.217
  2.220   2.224   2.239   2.242   2.245   2.249   2.249   2.255
  2.257   2.259   2.264   2.265   2.268   2.274   2.276   2.286
  2.291   2.292   2.293   2.293   2.296   2.300   2.302   2.304
  2.314   2.316   2.322   2.324   2.328   2.331   2.333   2.336
  2.340   2.346   2.349   2.351   2.351   2.354   2.361   2.368
  2.370   2.374   2.375   2.378   2.380   2.380   2.384   2.385
  2.387   2.392   2.395   2.402   2.407   2.408   2.415   2.416
  2.423   2.423   2.426   2.431   2.440   2.447   2.452   2.455
  2.462   2.462   2.464   2.467   2.473   2.475   2.476   2.482
  2.482   2.485   2.487   2.489   2.495   2.498   2.502   2.503
  2.509   2.511   2.513   2.514   2.522   2.523   2.529   2.531
  2.538   2.539   2.546   2.548   2.554   2.558   2.561   2.562
  2.565   2.566   2.575   2.576   2.577   2.583   2.591   2.593
  2.595   2.600   2.607   2.609   2.614   2.621   2.628   2.633
  2.642   2.643   2.644   2.647   2.662   2.665   2.666   2.670
  2.679   2.681   2.687   2.690   2.692   2.694   2.696   2.702
  2.706   2.708   2.710   2.720   2.728   2.730   2.739   2.745
  2.746   2.757   2.764   2.766   2.769   2.775   2.782   2.788
  2.793   2.798   2.811   2.814   2.816   2.821   2.825   2.835
  2.838   2.847   2.851   2.857   2.861   2.864   2.869   2.872
  2.874   2.876   2.881   2.885   2.888   2.893   2.897   2.898
  2.902   2.903   2.915   2.916   2.921   2.925   2.928   2.938
  2.941   2.952   2.962   2.962   2.975   2.989   3.003   3.019
  3.032   3.040   3.053   3.062   3.065   3.075   3.086   3.101
  3.170   3.175   3.180   3.188   3.195   3.199   3.236   3.239
  3.244   3.245   3.250   3.261   3.262   3.274   3.280   3.281
  3.290   3.294   3.297   3.297   3.309   3.313   3.315   3.342
  3.347   3.352   3.363   3.385   3.388   3.417   3.428   3.435
  3.445   3.452   3.465   3.471   3.495   3.501   3.513   3.517
  3.528   3.528   3.549   3.553   3.559   3.565   3.567   3.576
  3.619   3.634   3.726   3.743   3.855   3.863   3.906   3.929
  3.932   3.938   3.952   3.962   3.965   3.977   3.993   3.997
  4.007   4.038   4.067   4.071   4.076   4.097   4.105   4.119
  4.123   4.133   4.143   4.163   4.171   4.175   4.192   4.195
  4.228   4.236   4.242   4.255   4.258   4.263   4.266   4.277
  4.297   4.304   4.325   4.338   4.374   4.382   4.387   4.402
  4.425   4.433   4.449   4.456   4.470   4.476   4.484   4.487
  4.504   4.505   4.537   4.540   4.574   4.603   4.654   4.656
  4.679   4.698   4.718   4.726   4.766   4.774   4.796   4.798
 --------------------------------------------------------------
 
          Ground-State Mulliken Net Atomic Charges

     Atom                 Charge (a.u.)
  ----------------------------------------
      1 C                     0.265188
      2 C                    -0.118286
      3 N                    -0.499768
      4 C                    -0.079354
      5 C                     0.076592
      6 C                     0.043969
      7 C                     0.038043
      8 C                     0.062876
      9 C                     0.179621
     10 N                    -0.516880
     11 N                    -0.545620
     12 C                     0.249377
     13 C                     0.286158
     14 S                     0.627078
     15 N                    -0.547398
     16 C                    -0.215240
     17 S                     0.324043
     18 C                    -0.147052
     19 C                    -0.219291
     20 S                     0.270560
     21 C                     0.168168
     22 C                     0.029339
     23 C                    -0.294217
     24 C                    -0.053327
     25 N                    -0.406047
     26 S                     0.280620
     27 C                     0.109753
     28 C                    -0.300538
     29 C                    -0.218028
     30 H                     0.088137
     31 H                     0.123287
     32 H                     0.100456
     33 H                     0.105538
     34 H                     0.124791
     35 H                     0.112120
     36 H                     0.116545
     37 H                     0.130759
     38 H                     0.094429
     39 C                    -0.178208
     40 H                     0.115351
     41 H                     0.094555
     42 H                     0.116731
     43 C                    -0.167522
     44 H                     0.097827
     45 C                    -0.176871
     46 H                     0.095279
     47 H                     0.091807
     48 H                     0.089381
     49 C                    -0.186656
     50 H                     0.100842
     51 C                    -0.330640
     52 H                     0.102632
     53 H                     0.104224
     54 H                     0.087987
     55 H                     0.101159
     56 C                     0.249675
     57 C                    -0.117325
     58 N                    -0.464890
     59 C                    -0.079846
     60 C                     0.092690
     61 C                     0.040106
     62 C                     0.056147
     63 C                     0.032664
     64 C                     0.186492
     65 N                    -0.540394
     66 N                    -0.539720
     67 C                     0.205580
     68 C                     0.314787
     69 S                     0.616359
     70 N                    -0.564541
     71 C                    -0.228587
     72 S                     0.363131
     73 C                    -0.077137
     74 C                    -0.233004
     75 S                     0.282911
     76 C                     0.122681
     77 C                     0.067337
     78 C                    -0.332256
     79 C                    -0.038295
     80 N                    -0.445717
     81 S                     0.291181
     82 C                     0.104975
     83 C                    -0.300784
     84 C                    -0.228225
     85 H                     0.093501
     86 H                     0.096860
     87 H                     0.114509
     88 H                     0.107996
     89 H                     0.122335
     90 H                     0.123505
     91 H                     0.110758
     92 H                     0.134205
     93 H                     0.111391
     94 C                    -0.168365
     95 H                     0.092947
     96 H                     0.095718
     97 H                     0.113915
     98 C                    -0.174543
     99 H                     0.097682
    100 C                    -0.179761
    101 H                     0.095017
    102 H                     0.089934
    103 H                     0.089375
    104 C                    -0.176997
    105 H                     0.093350
    106 C                    -0.322692
    107 H                     0.095117
    108 H                     0.094930
    109 H                     0.104179
    110 H                     0.104859
  ----------------------------------------
  Sum of atomic charges =     0.000000

 -----------------------------------------------------------------
                    Cartesian Multipole Moments
 -----------------------------------------------------------------
    Charge (ESU x 10^10)
                 0.0000
    Dipole Moment (Debye)
         X       1.4993      Y       2.5812      Z       2.4933
       Tot       3.8894
    Quadrupole Moments (Debye-Ang)
        XX    -394.0004     XY      41.1841     YY    -436.6969
        XZ      -9.7705     YZ      11.1433     ZZ    -437.1697
    Octopole Moments (Debye-Ang^2)
       XXX     418.5060    XXY     285.2744    XYY     100.7485
       YYY      73.7868    XXZ     131.4889    XYZ      -0.8855
       YYZ      20.4898    XZZ      17.4739    YZZ      63.9876
       ZZZ      -4.3100
    Hexadecapole Moments (Debye-Ang^3)
      XXXX  -75666.4764   XXXY    3077.4348   XXYY  -22564.5807
      XYYY    1238.0800   YYYY  -57024.6762   XXXZ   -1090.7532
      XXYZ     179.2307   XYYZ     232.0931   YYYZ     188.4180
      XXZZ  -15291.5355   XYZZ     229.0564   YYZZ  -10734.1315
      XZZZ      16.6638   YZZZ      30.8573   ZZZZ   -7296.6424
 -----------------------------------------------------------------
Archival summary:
1\1\mn426\SP\ProcedureUnspecified\6-31G**\8105042\afmv_a\SatOct615:56:382018SatOct615:56:382018\0\\#,ProcedureUnspecified,6-31G**,\\0,1\S\C,1,1.76739\C,2,1.37618,1,112.85\C,3,1.47323,2,111.568,1,1.09663,0\C,4,1.35398,3,114.225,2,-3.03828,0\C,5,1.43301,4,123.505,3,169.157,0\N,6,1.31947,5,115.323,4,-173.625,0\C,7,1.41469,6,109.991,5,-171.207,0\H,8,1.08184,7,125.178,6,171.189,0\C,8,1.35784,7,117.01,6,2.12485,0\H,10,1.08182,8,123.473,7,164.984,0\C,4,1.43588,3,113.341,2,179.533,0\H,12,1.08479,4,122.048,3,-176.908,0\C,12,1.39396,4,108.416,3,-3.16103,0\H,14,1.08144,12,125.67,4,178.28,0\C,2,1.49132,1,122.992,3,-166.95,0\N,16,1.34648,2,118.408,1,178.106,0\C,17,1.37411,16,120.648,2,-179.05,0\H,18,1.08818,17,113.513,16,-175.037,0\C,16,1.40931,2,122.842,1,6.55918,0\N,20,1.3739,16,127.091,2,4.2669,0\C,20,1.38811,16,119.263,2,176.799,0\N,22,1.38047,20,111.752,16,173.36,0\C,22,1.40827,20,124.897,16,-1.7256,0\C,24,1.54262,22,125.572,20,171.937,0\C,25,1.37795,24,123.153,22,-155.13,0\H,26,1.08623,25,118.681,24,8.0713,0\C,26,1.38613,25,119.896,24,-178.723,0\H,28,1.08623,26,113.597,25,172.529,0\C,28,1.38631,26,119.833,25,10.0643,0\N,30,1.36432,28,121.564,26,-0.673984,0\C,31,1.32124,30,117.883,28,-7.65272,0\H,32,1.08829,31,111.307,30,174.347,0\C,30,1.52849,28,120.182,26,175.051,0\H,34,1.0966,30,108.725,28,24.1689,0\H,34,1.09748,30,106.307,28,139.309,0\C,34,1.52628,30,116.22,28,-96.1417,0\H,37,1.09633,34,107.851,30,-38.5592,0\H,37,1.09728,34,101.161,30,-159.19,0\C,37,1.51454,34,111.279,30,89.1929,0\H,40,1.09621,37,103.178,34,-76.2412,0\H,40,1.09726,37,114.401,34,46.5194,0\C,40,1.58893,37,110.284,34,170.526,0\H,43,1.09702,40,111.856,37,-67.689,0\H,43,1.09755,40,110.119,37,47.0217,0\C,43,1.58108,40,113.726,37,177.013,0\H,46,1.09697,43,106.545,40,173.971,0\H,46,1.09715,43,113.356,40,-65.1941,0\C,46,1.55811,43,109.802,40,55.1501,0\H,49,1.09647,46,114.148,43,52.6042,0\H,49,1.09652,46,113.577,43,-77.8151,0\H,49,1.09763,46,111.182,43,176.745,0\S,23,1.60494,22,107.543,20,16.0244,0\S,3,1.66654,2,135.492,1,179.024,0\S,6,1.73581,5,129.674,4,19.5341,0\C,13,3.03816,12,104.753,4,86.8222,0\H,56,1.08395,13,82.7692,12,148.59,0\C,56,1.35589,13,81.0651,12,23.9782,0\H,58,1.08198,56,125.657,13,86.418,0\C,56,1.42006,13,110.774,12,-86.9867,0\C,60,1.36622,56,132.706,13,-111.886,0\C,60,1.37495,56,111.95,13,80.8838,0\C,62,1.42407,60,113.937,56,164.393,0\C,63,1.42673,62,125.825,60,-170.271,0\N,64,1.36427,63,110.417,62,160.676,0\C,65,1.33665,64,117.788,63,-174.211,0\H,66,1.08932,65,118.476,64,172.577,0\C,64,1.41869,63,129.389,62,-27.2839,0\N,68,1.38345,64,129.283,63,-1.41937,0\C,68,1.38826,64,121.27,63,-177.729,0\N,70,1.38215,68,118.886,64,178.613,0\C,70,1.44166,68,120.19,64,-6.29409,0\C,61,1.4869,60,123.783,56,6.21492,0\N,73,1.31341,61,112.799,60,40.9304,0\C,74,1.40169,73,109.392,61,178.054,0\H,75,1.08184,74,122.743,73,-177.912,0\C,75,1.36434,74,112.509,73,-11.1445,0\H,77,1.08221,75,124.25,74,-165.859,0\C,72,1.50501,70,128.876,68,-169.754,0\C,79,1.40648,72,123.87,70,157.374,0\H,80,1.08934,79,119.164,72,7.19431,0\N,80,1.34107,79,122.99,72,-171.797,0\C,82,1.35735,80,121.139,79,-4.27231,0\C,83,1.38444,82,120.327,80,-0.136887,0\H,84,1.08586,83,123.184,82,-179.982,0\C,84,1.40653,83,118.666,82,2.66785,0\H,86,1.08583,84,115.975,83,178.699,0\C,83,1.55788,82,119.975,80,178.582,0\H,88,1.09659,83,107.976,82,32.8527,0\H,88,1.09664,83,105.988,82,157.347,0\C,88,1.52412,83,111.097,82,-82.5928,0\H,91,1.09653,88,102.692,83,61.4241,0\H,91,1.09682,88,110.189,83,-54.0406,0\C,91,1.55585,88,110.095,83,178.204,0\H,94,1.09597,91,113.509,88,-55.9778,0\H,94,1.09738,91,109.783,88,64.4163,0\C,94,1.51619,91,108.078,88,177.587,0\H,97,1.09746,94,107.655,91,-67.8326,0\H,97,1.0977,94,112.531,91,49.9966,0\S,71,1.61371,70,102.113,68,-6.26188,0\C,97,1.62354,94,117.263,91,166.263,0\H,101,1.09628,97,117.286,94,165.708,0\H,101,1.09773,97,107.976,94,-63.9348,0\C,101,1.58581,97,106.133,94,47.1827,0\H,104,1.09621,101,112.733,97,-82.7412,0\H,104,1.09685,101,106.356,97,176.052,0\H,104,1.09765,101,123.473,97,48.7869,0\S,61,1.73653,60,110.454,56,-168.823,0\S,77,1.74562,75,114.413,74,3.2617,0\S,58,1.77407,56,115.003,13,-105.698,0\\\@

 Total job time:  105.21s(wall), 1117.19s(cpu) 
 Sat Oct  6 15:56:38 2018

        *************************************************************
        *                                                           *
        *  Thank you very much for using Q-Chem.  Have a nice day.  *
        *                                                           *
        *************************************************************


