
Running Job 1 of 1 ./10/61.qcin
qchem ./10/61.qcin_31598.0 /tmpu/cab_g/afmv_a/scratch_qchem/qchem31598/ 1
/tmpu/appuserlic/qchem4.4/serial-multicore/exe/qcprog.exe_s ./10/61.qcin_31598.0 /tmpu/cab_g/afmv_a/scratch_qchem/qchem31598/
Check license passed

                  Welcome to Q-Chem
     A Quantum Leap Into The Future Of Chemistry


 Q-Chem 4.4, Q-Chem, Inc., Pleasanton, CA (2016)

 Y. Shao,  Z. Gan,  E. Epifanovsky,  A. T. B. Gilbert,  M. Wormit,  
 J. Kussmann,  A. W. Lange,  A. Behn,  J. Deng,  X. Feng,  D. Ghosh,  
 M. Goldey,  P. R. Horn,  L. D. Jacobson,  I. Kaliman,  F. Rob,  
 R. Z. Khaliullin,  T. Kus,  A. Landau,  J. Liu,  E. I. Proynov,  Y. M. Rhee,  
 R. M. Richard,  M. A. Rohrdanz,  R. P. Steele,  E. J. Sundstrom,  
 H. L. Woodcock III,  P. M. Zimmerman,  D. Zuev,  B. Albrecht,  E. Alguire,  
 B. Austin,  S. A. Baeppler,  G. J. O. Beran,  Y. A. Bernard,  E. Berquist,  
 K. Brandhorst,  K. B. Bravaya,  S. T. Brown,  D. Casanova,  C.-M. Chang,  
 Y. Chen,  S. H. Chien,  K. D. Closser,  M. P. Coons,  D. L. Crittenden,  
 S. Dasgupta,  M. Diedenhofen,  R. A. DiStasio Jr.,  H. Do,  A. D. Dutoi,  
 R. G. Edgar,  P.-T. Fang,  S. Fatehi,  Q. Feng,  L. Fusti-Molnar,  
 A. Ghysels,  A. Golubeva-Zadorozhnaya,  J. Gomes,  A. Gunina,  
 M. W. D. Hanson-Heine,  P. H. P. Harbach,  A. W. Hauser,  J. E. Herr,  
 E. G. Hohenstein,  Z. C. Holden,  K. Hui,  T.-C. Jagau,  H. Ji,  B. Kaduk,  
 K. Khistyaev,  Jaehoon Kim,  Jihan Kim,  R. A. King,  P. Klunzinger,  
 K. Koh,  D. Kosenkov,  T. Kowalczyk,  C. M. Krauter,  A. Kunitsa,  
 K. U. Lao,  A. Laurent,  K. V. Lawler,  J. Lee,  D. Lefrancois,  S. Lehtola,  
 S. V. Levchenko,  C. Y. Lin,  Y.-S. Lin,  F. Liu,  E. Livshits,  
 R. C. Lochan,  A. Luenser,  P. Manohar,  S. F. Manzer,  S.-P. Mao,  Y. Mao,  
 N. Mardirossian,  A. V. Marenich,  L. A. Martinez-Martinez,  S. A. Maurer,  
 N. J. Mayhall,  J.-M. Mewes,  A. F. Morrison,  K. Nanda,  T. S. Nguyen-Beck,  
 C. M. Oana,  R. Olivares-Amaya,  D. P. O'Neill,  J. A. Parkhill,  
 T. M. Perrine,  R. Peverati,  P. A. Pieniazek,  F. Plasser,  A. Prociuk,  
 D. R. Rehn,  E. Rosta,  N. J. Russ,  N. Sergueev,  S. M. Sharada,  
 S. Sharma,  D. W. Small,  A. Sodt,  T. Stauch,  T. Stein,  D. Stuck,  
 Y.-C. Su,  A. J. W. Thom,  T. Tsuchimochi,  L. Vogt,  O. Vydrov,  T. Wang,  
 M. A. Watson,  J. Wenzel,  A. White,  C. F. Williams,  V. Vanovschi,  
 K. Yao,  S. Yeganeh,  S. R. Yost,  Z.-Q. You,  I. Y. Zhang,  X. Zhang,  
 Y. Zhao,  B. R. Brooks,  G. K. L. Chan,  D. M. Chipman,  C. J. Cramer,  
 W. A. Goddard III,  M. S. Gordon,  W. J. Hehre,  A. Klamt,  
 H. F. Schaefer III,  M. W. Schmidt,  C. D. Sherrill,  D. G. Truhlar,  
 A. Warshel,  X. Xu,  A. Aspuru-Guzik,  R. Baer,  A. T. Bell,  N. A. Besley,  
 J.-D. Chai,  A. Dreuw,  B. D. Dunietz,  T. R. Furlani,  S. R. Gwaltney,  
 C.-P. Hsu,  Y. Jung,  J. Kong,  D. S. Lambrecht,  W. Liang,  C. Ochsenfeld,  
 V. A. Rassolov,  L. V. Slipchenko,  J. E. Subotnik,  T. Van Voorhis,  
 J. M. Herbert,  A. I. Krylov,  P. M. W. Gill,  M. Head-Gordon

 Contributors to earlier versions of Q-Chem not listed above: 
 R. D. Adamson,  J. Baker,  E. F. C. Byrd,  A. K. Chakraborty,  C.-L. Cheng,  
 H. Dachsel,  R. J. Doerksen,  G. Hawkins,  A. Heyden,  S. Hirata,  
 G. Kedziora,  F. J. Keil,  C. Kelley,  P. P. Korambath,  W. Kurlancheek,  
 A. M. Lee,  M. S. Lee,  D. Liotard,  I. Lotan,  P. E. Maslen,  N. Nair,  
 D. Neuhauser,  R. Olson,  B. Peters,  J. Ritchie,  N. E. Schultz,  
 N. Shenvi,  A. C. Simmonett,  K. S. Thanthiriwatte,  Q. Wu,  W. Zhang

 Please cite Q-Chem as follows:
 Y. Shao et al., Mol. Phys. 113, 184-215 (2015)
 DOI: 10.1080/00268976.2014.952696

 Q-Chem 4.4.2 for Intel X86 Linux

 Parts of Q-Chem use Armadillo 5.200.1 (Boston Tea Smuggler).
 http://arma.sourceforge.net/

 Q-Chem begins on Sat Oct  6 15:58:18 2018  

Host: 
0

     Scratch files written to /tmpu/cab_g/afmv_a/scratch_qchem/qchem31598//
 Dec716 11556_ 22328  22283 4050   
Processing $rem in /tmpu/appuserlic/qchem4.4/serial-multicore/config/preferences.
 MEM_TOTAL  2000 
FILE_GEOM_ORG=        593

Checking the input file for inconsistencies... 	...done.

--------------------------------------------------------------
User input:
--------------------------------------------------------------
$comment
SP
$end

$rem
MEM_STATIC 5000
MEM_TOTAL 20000
JOBTYPE SP
EXCHANGE B3LYP
BASIS 6-31g(d,p)
$end

$molecule
0 1
C           1.117000     19.255000     10.528000
C           2.376000     19.909000     10.614000
N           0.863000     18.314000      9.594000
C           3.320000     19.635000      9.628000
C           1.751000     18.055000      8.620000
C           3.014000     18.690000      8.585000
C           3.993000     18.294000      7.406000
C           5.389000     18.233000      7.631000
C           3.587000     18.029000      6.117000
N           6.322000     17.765000      6.749000
N           2.381000     18.142000      5.614000
C           4.516000     17.750000      5.121000
C           5.889000     17.563000      5.455000
S           2.459000     17.727000      4.020000
N           4.042000     17.542000      3.867000
C           6.973000     17.118000      4.565000
S           8.517000     16.296000      5.131000
C           7.284000     17.660000      3.271000
C           9.201000     16.336000      3.513000
S           6.482000     19.007000      2.502000
C           8.459000     17.164000      2.696000
C          10.481000     15.859000      3.238000
C           7.677000     18.802000      1.184000
C           8.674000     17.878000      1.447000
N          10.866000     15.700000      1.967000
S          11.499000     15.078000      4.419000
C          12.206000     15.326000      1.932000
C          12.725000     14.932000      3.159000
C          -0.060000     19.538000     11.499000
H           2.501000     20.613000     11.432000
H           4.293000     20.118000      9.598000
H           1.443000     17.386000      7.817000
H           5.735000     18.389000      8.652000
H           7.626000     19.502000      0.361000
H           9.516000     17.681000      0.793000
H          12.669000     15.291000      0.955000
H          13.657000     14.405000      3.314000
H          -0.191000     20.624000     11.412000
C           0.118000     19.110000     12.963000
H          -0.978000     19.126000     11.061000
H          -0.749000     19.449000     13.543000
H           0.992000     19.667000     13.323000
C           0.276000     17.569000     13.188000
H          -0.648000     17.066000     12.878000
C           0.491000     17.153000     14.653000
H           1.118000     17.283000     12.546000
H          -0.487000     17.267000     15.136000
H           1.096000     17.930000     15.136000
C           1.062000     15.709000     14.729000
H           0.346000     15.095000     14.169000
C           1.305000     15.356000     16.172000
H           1.963000     15.625000     14.108000
H           1.749000     16.190000     16.730000
H           1.820000     14.407000     16.364000
H           0.339000     15.197000     16.668000
C           5.742000     22.075000     12.662000
C           5.690000     20.741000     12.338000
N           6.912000     22.808000     12.530000
C           6.897000     20.134000     11.918000
C           8.022000     22.218000     12.118000
C           8.062000     20.889000     11.704000
C           9.310000     20.367000     11.084000
C          10.574000     20.769000     11.556000
C           9.383000     19.490000      9.942000
N          11.755000     20.338000     11.073000
N           8.319000     18.872000      9.351000
C          10.628000     19.011000      9.519000
C          11.842000     19.421000     10.077000
S           8.991000     17.787000      8.300000
N          10.584000     18.100000      8.515000
C          13.161000     18.856000      9.760000
S          13.485000     17.283000      9.059000
C          14.357000     19.461000      9.960000
C          15.295000     17.586000      8.902000
S          14.666000     21.011000     10.616000
C          15.548000     18.834000      9.479000
C          16.314000     16.599000      8.505000
C          16.453000     20.823000     10.360000
C          16.715000     19.611000      9.767000
N          17.577000     16.912000      8.553000
S          15.883000     15.039000      7.776000
C          18.351000     15.869000      8.125000
C          17.632000     14.820000      7.631000
C           4.571000     22.751000     13.247000
H           4.781000     20.152000     12.415000
H           6.854000     19.095000     11.604000
H           8.875000     22.894000     12.069000
H          10.605000     21.327000     12.491000
H          17.135000     21.576000     10.732000
H          17.730000     19.263000      9.616000
H          19.419000     16.035000      8.084000
H          18.044000     13.887000      7.269000
H           3.964000     22.040000     13.821000
C           3.637000     23.430000     12.163000
H           4.936000     23.482000     13.980000
H           3.376000     22.790000     11.311000
H           4.258000     24.209000     11.703000
C           2.391000     24.267000     12.748000
H           2.720000     25.081000     13.406000
C           1.424000     23.337000     13.458000
H           1.891000     24.752000     11.901000
H           2.110000     22.693000     14.022000
H           0.958000     22.610000     12.781000
C           0.471000     24.137000     14.349000
H           1.013000     24.502000     15.230000
C          -0.780000     23.387000     14.878000
H          -0.006000     25.019000     13.905000
H          -0.528000     22.507000     15.483000
H          -1.503000     23.061000     14.121000
H          -1.215000     24.055000     15.632000
$end

--------------------------------------------------------------
 ----------------------------------------------------------------
             Standard Nuclear Orientation (Angstroms)
    I     Atom           X                Y                Z
 ----------------------------------------------------------------
    1      C       6.9253853432    -1.0646981970    -0.6074910319
    2      C       5.9705788548    -0.2406506334     0.0478586325
    3      N       6.5944313298    -2.2641697809    -1.1310274303
    4      C       4.6910712030    -0.7545727567     0.2406077444
    5      C       5.3731735713    -2.7872349477    -0.9329534071
    6      C       4.3653005109    -2.0696618845    -0.2481908257
    7      C       2.9548665856    -2.7705505652    -0.0909356198
    8      C       1.7686665699    -1.9998966370    -0.1376693943
    9      C       2.7793682337    -4.1178530926     0.1339159490
   10      N       0.4945065055    -2.4930958436    -0.1642715168
   11      N       3.7022951292    -5.0246553347     0.3486940653
   12      C       1.5085073444    -4.6482695498     0.3248844856
   13      C       0.3555430561    -3.8359992324     0.1186218342
   14      S       2.9435813873    -6.4693075023     0.5863462743
   15      N       1.4200544592    -5.9769831195     0.5840221649
   16      C      -1.0523833723    -4.2636200237     0.1266611794
   17      S      -2.4146921049    -3.3859626599    -0.7415602606
   18      C      -1.6945648262    -5.0476316771     1.1454102690
   19      C      -3.6260456967    -4.4441266720    -0.0342474593
   20      S      -0.9585389630    -5.6088625351     2.6260384643
   21      C      -3.0781137163    -5.1867105085     0.9914117388
   22      C      -4.9877588657    -4.2788206287    -0.2791253010
   23      C      -2.5726031527    -6.2728013362     3.0274809381
   24      C      -3.5785724183    -5.9188099890     2.1444917180
   25      N      -5.8448361787    -5.2367005896     0.0907820657
   26      S      -5.6376016126    -3.0953162824    -1.3827864205
   27      C      -7.1478279605    -4.8100148831    -0.1476560277
   28      C      -7.2446942689    -3.6780392754    -0.9472647707
   29      C       8.4110394994    -0.6607520282    -0.8022170467
   30      H       6.3212692805     0.7293611097     0.3891187146
   31      H       3.9120966154    -0.2063148196     0.7636085343
   32      H       5.2006502745    -3.8120569677    -1.2603820854
   33      H       1.8736380657    -0.9395254387    -0.3636935234
   34      H      -2.6775695058    -6.7643617050     3.9852285398
   35      H      -4.6249737834    -6.1717501893     2.2731557695
   36      H      -7.9375090445    -5.4464677981     0.2284483095
   37      H      -8.1436637733    -3.3156461682    -1.4277885122
   38      H       8.7394897388    -0.4417696761     0.2216448433
   39      C       8.7020784045     0.5136154260    -1.7479027441
   40      H       8.9815176911    -1.5574309362    -1.0757742960
   41      H       9.7751108171     0.7389642211    -1.7191040963
   42      H       8.1745110131     1.3721196632    -1.3138887787
   43      C       8.2990646064     0.2765759728    -3.2417776305
   44      H       8.9024082247    -0.5439048826    -3.6488066764
   45      C       8.5598567476     1.4715536770    -4.1742591292
   46      H       7.2372297536     0.0051816320    -3.1996367097
   47      H       9.6462078897     1.4950687608    -4.3227759190
   48      H       8.3696280406     2.3887913491    -3.6037058083
   49      C       7.7511079093     1.3175685957    -5.4930339057
   50      H       8.0489600998     0.3399643759    -5.8915637815
   51      C       7.9925737616     2.5262563583    -6.3571375655
   52      H       6.6892166534     1.1541329890    -5.2690388991
   53      H       7.9880521858     3.4558350853    -5.7741118836
   54      H       7.3883566023     2.6050128203    -7.2689539090
   55      H       9.0118853876     2.4782371183    -6.7610570644
   56      C       4.1906454314     3.6305458721     1.4836478315
   57      C       3.8178463766     2.9064407826     0.3773347275
   58      N       3.2521731019     4.2577465240     2.2895647187
   59      C       2.4385700158     2.8762621793     0.0636725327
   60      C       1.9670061265     4.1980586341     1.9817868750
   61      C       1.4788811084     3.4391894626     0.9210849625
   62      C       0.0069868241     3.2851891325     0.7655243181
   63      C      -0.8644801029     4.3561536923     1.0405957758
   64      C      -0.6817200048     2.0714066641     0.4035339551
   65      N      -2.2045059674     4.3181527135     0.9113765504
   66      N      -0.0830908440     0.9166922772    -0.0106867742
   67      C      -2.0676780649     2.0961426052     0.2114314070
   68      C      -2.8602111450     3.2207342875     0.4572867813
   69      S      -1.3235387815    -0.0294799350    -0.5579134723
   70      N      -2.6071088087     0.9375597697    -0.2430719329
   71      C      -4.2924183637     3.3391181412     0.1502969676
   72      S      -5.1980371068     2.3818851733    -1.0048072430
   73      C      -5.1588823601     4.2165232193     0.7122947185
   74      C      -6.8181845369     3.1251673499    -0.5408978655
   75      S      -4.8450275242     5.4006454701     1.9071447664
   76      C      -6.5510257703     4.1215722708     0.4026303148
   77      C      -8.1046773950     2.9115157914    -1.2260461250
   78      C      -6.5913464207     5.8928376060     1.9557885030
   79      C      -7.3200100278     5.1159864214     1.0870028075
   80      N      -9.1535970760     3.5957213926    -0.8695742492
   81      S      -8.3382283641     1.6101183616    -2.4103690010
   82      C     -10.2436666931     3.2325604723    -1.6111747993
   83      C     -10.0158015266     2.1696689310    -2.4356364645
   84      C       5.6146129652     3.8375830302     1.7997080754
   85      H       4.5330511299     2.3913264198    -0.2569131375
   86      H       2.1274249088     2.2591939333    -0.7744095051
   87      H       1.3321430018     4.7406501412     2.6814505581
   88      H      -0.4181290504     5.3375735279     1.1959529265
   89      H      -6.8977356945     6.7418288864     2.5523255251
   90      H      -8.3679765791     5.3133686270     0.8948144305
   91      H     -11.1832090197     3.7106021220    -1.3691058057
   92      H     -10.7307337761     1.7418273279    -3.1263610415
   93      H       6.2163797898     3.8325218069     0.8824855982
   94      C       6.2022612568     2.7392958774     2.7779145032
   95      H       5.7235454422     4.8477664807     2.2150851473
   96      H       5.9756106383     1.7026564208     2.4992872720
   97      H       5.6457082554     2.8684014591     3.7147509379
   98      C       7.7297713787     2.9657760126     3.2369674152
   99      H       7.8616592588     3.9238476592     3.7551423925
  100      C       8.6574043946     2.8503102749     2.0410352887
  101      H       7.9718937262     2.1918181430     3.9752085580
  102      H       8.1065210660     3.4144257214     1.2783234680
  103      H       8.6612087297     1.8452226894     1.6008098094
  104      C      10.0272297058     3.4491113316     2.3683056832
  105      H       9.9502287392     4.5427670151     2.4020413777
  106      C      11.1831569280     3.1165833896     1.3882039411
  107      H      10.4880822466     3.1525586145     3.3181795810
  108      H      10.9854487020     3.4528529253     0.3626488442
  109      H      11.4781497280     2.0622307374     1.3301200993
  110      H      12.0059659447     3.7801876331     1.6824482785
 ----------------------------------------------------------------
 Molecular Point Group                 C1    NOp =  1
 Largest Abelian Subgroup              C1    NOp =  1
 Nuclear Repulsion Energy = 11671.8308835584 hartrees
 There are      270 alpha and      270 beta electrons
 Requested basis set is 6-31G(d,p)
 There are 406 shells and 1262 basis functions

 Total QAlloc Memory Limit  20000 MB
 Mega-Array Size      4888 MB
 MEM_STATIC part      5000 MB
 A cutoff of  1.0D-08 yielded  14135 shell pairs
 There are    143136 function pairs
 
 -------------------------------------------------------
 OpenMP Integral Computing Module                       
 Release: version 1.0, May 2013, Q-Chem Inc. Pittsburgh 
 -------------------------------------------------------
 Integral Job Info:
 Integral job number is                      11
 Integral operator is                         1
 short-range coefficients                     0
 long-range coefficients              100000000
 Omega coefficients                           0
 if combine SR and LR in K                    0
 Integral screening is                        0
 Integral computing path is                   2
 max size of driver memory is            800000
 size of driver memory is                593474
 size of scratch memory is             15166112
 max col of scratch BK array               1296
 max len of scratch array in speh3          155
 max len of scratch index in speh4           18
 max int batch size is                      520
 min int batch size is                       52
 fixed nKL is                                52
 max L of basis functions is                  2
 order of int derivative is                   0
 number of shells is                        406
 number of basis is                        1262
 number of cartesian basis is              1262
 number of contracted shell pairs         14135
 number of primitive shell pairs          44181
 maxK2 (contraction) of shell pair           36
 max number of K2 of shell pair               1
 max number of CS2 of shell pair           1386
 max number of PS2 of shell pair           7848
 mem total for path MDJ                  294520
 -------------------------------------------------------
 Smallest overlap matrix eigenvalue = 4.17E-04

 Scale SEOQF with 1.000000e-02/1.000000e-02/1.000000e-02

 Standard Electronic Orientation quadrupole field applied
 Nucleus-field energy     =     0.0000000940 hartrees
 Guess from superposition of atomic densities
 Warning:  Energy on first SCF cycle will be non-variational
 A restricted hybrid HF-DFT SCF calculation will be
 performed using Pulay DIIS extrapolation
 Exchange:     0.2000 Hartree-Fock + 0.0800 Slater + 0.7200 B88
 Correlation:  0.1900 VWN1RPA + 0.8100 LYP
 Using SG-1 standard quadrature grid
 SCF converges when DIIS error is below 1.0E-05
 using 16 threads for integral computing 
 -------------------------------------------------------
 OpenMP BLAS3 based DFT computing Module                
 Release: version 1.0, May 2013, Q-Chem Inc. Pittsburgh 
 -------------------------------------------------------
 ---------------------------------------
  Cycle       Energy         DIIS Error
 ---------------------------------------
    1   -5679.7379209109      2.13E-02
    2   -5662.5307193652      2.14E-03
    3   -5660.8653804178      3.49E-03
    4   -5663.3421732381      9.19E-04
    5   -5663.5035245301      3.37E-04
    6   -5663.5152421453      2.37E-04
    7   -5663.5259884309      8.73E-05
    8   -5663.5273898738      2.85E-05
    9   -5663.5275315652      1.11E-05
   10   -5663.5275587199      3.49E-06 Convergence criterion met
 ---------------------------------------
 SCF time:  CPU 1060.67 s  wall 93.79 s
 SCF   energy in the final basis set = -5663.5275587199
 Total energy in the final basis set = -5663.5275587199
 
 --------------------------------------------------------------
 
                    Orbital Energies (a.u.)
 --------------------------------------------------------------
 
 Alpha MOs
 -- Occupied --
-88.993 -88.981 -88.928 -88.927 -88.927 -88.921 -88.915 -88.898
-14.393 -14.381 -14.380 -14.379 -14.360 -14.344 -14.343 -14.342
-14.329 -14.327 -10.273 -10.270 -10.266 -10.261 -10.260 -10.255
-10.255 -10.252 -10.248 -10.246 -10.243 -10.242 -10.240 -10.238
-10.236 -10.235 -10.233 -10.233 -10.232 -10.231 -10.230 -10.230
-10.229 -10.226 -10.226 -10.226 -10.225 -10.224 -10.224 -10.220
-10.216 -10.216 -10.213 -10.212 -10.208 -10.207 -10.201 -10.195
-10.191 -10.190 -10.188 -10.186 -10.184 -10.183 -10.180 -10.179
-10.176 -10.176 -10.173 -10.171  -8.049  -8.035  -7.988  -7.988
 -7.987  -7.979  -7.976  -7.959  -6.014  -6.009  -6.007  -6.000
 -5.995  -5.993  -5.952  -5.952  -5.951  -5.949  -5.948  -5.948
 -5.945  -5.945  -5.944  -5.944  -5.940  -5.940  -5.937  -5.936
 -5.932  -5.923  -5.919  -5.915  -1.052  -1.027  -0.974  -0.965
 -0.954  -0.951  -0.939  -0.936  -0.918  -0.908  -0.906  -0.896
 -0.845  -0.835  -0.829  -0.828  -0.811  -0.810  -0.805  -0.803
 -0.802  -0.801  -0.797  -0.796  -0.791  -0.785  -0.769  -0.768
 -0.751  -0.748  -0.744  -0.740  -0.725  -0.718  -0.712  -0.712
 -0.698  -0.691  -0.677  -0.669  -0.655  -0.654  -0.649  -0.643
 -0.638  -0.635  -0.628  -0.625  -0.612  -0.611  -0.598  -0.596
 -0.593  -0.589  -0.589  -0.587  -0.582  -0.577  -0.573  -0.570
 -0.556  -0.547  -0.542  -0.533  -0.525  -0.522  -0.512  -0.508
 -0.507  -0.506  -0.502  -0.498  -0.491  -0.486  -0.480  -0.477
 -0.475  -0.473  -0.472  -0.465  -0.464  -0.461  -0.450  -0.445
 -0.444  -0.441  -0.440  -0.439  -0.437  -0.436  -0.434  -0.432
 -0.429  -0.426  -0.423  -0.423  -0.419  -0.418  -0.416  -0.415
 -0.412  -0.409  -0.408  -0.405  -0.403  -0.401  -0.400  -0.398
 -0.394  -0.392  -0.391  -0.389  -0.386  -0.385  -0.384  -0.383
 -0.382  -0.380  -0.375  -0.372  -0.370  -0.369  -0.366  -0.360
 -0.356  -0.351  -0.350  -0.348  -0.347  -0.345  -0.344  -0.343
 -0.338  -0.335  -0.335  -0.333  -0.332  -0.330  -0.326  -0.320
 -0.316  -0.315  -0.314  -0.309  -0.305  -0.303  -0.303  -0.301
 -0.296  -0.296  -0.293  -0.291  -0.288  -0.286  -0.284  -0.281
 -0.275  -0.272  -0.271  -0.260  -0.256  -0.254  -0.251  -0.247
 -0.245  -0.239  -0.236  -0.233  -0.196  -0.193
 -- Virtual --
 -0.118  -0.107  -0.083  -0.073  -0.041  -0.039  -0.031  -0.024
 -0.023  -0.018  -0.017  -0.015  -0.009  -0.007  -0.004  -0.001
  0.002   0.005   0.015   0.021   0.030   0.030   0.039   0.042
  0.049   0.051   0.055   0.057   0.062   0.065   0.080   0.086
  0.093   0.097   0.099   0.100   0.102   0.104   0.107   0.107
  0.108   0.113   0.114   0.116   0.118   0.119   0.123   0.124
  0.128   0.128   0.130   0.131   0.134   0.135   0.137   0.143
  0.145   0.150   0.152   0.156   0.158   0.161   0.162   0.163
  0.166   0.169   0.171   0.172   0.175   0.177   0.178   0.180
  0.186   0.188   0.188   0.189   0.191   0.193   0.196   0.197
  0.202   0.202   0.205   0.208   0.211   0.213   0.218   0.220
  0.222   0.224   0.226   0.228   0.231   0.235   0.236   0.237
  0.241   0.242   0.244   0.247   0.255   0.256   0.256   0.261
  0.265   0.268   0.269   0.271   0.273   0.277   0.278   0.281
  0.283   0.284   0.287   0.289   0.295   0.296   0.298   0.303
  0.305   0.308   0.310   0.312   0.317   0.324   0.326   0.327
  0.331   0.332   0.332   0.336   0.337   0.341   0.344   0.349
  0.352   0.357   0.359   0.362   0.368   0.370   0.372   0.374
  0.375   0.380   0.382   0.383   0.386   0.393   0.399   0.402
  0.403   0.410   0.413   0.416   0.417   0.427   0.431   0.439
  0.445   0.449   0.454   0.457   0.459   0.461   0.465   0.469
  0.472   0.475   0.480   0.487   0.488   0.494   0.495   0.500
  0.502   0.504   0.507   0.509   0.513   0.514   0.516   0.517
  0.521   0.522   0.524   0.525   0.527   0.528   0.529   0.532
  0.532   0.534   0.535   0.538   0.540   0.540   0.543   0.546
  0.549   0.551   0.554   0.554   0.559   0.561   0.562   0.563
  0.564   0.566   0.568   0.569   0.573   0.574   0.578   0.579
  0.582   0.584   0.588   0.589   0.589   0.591   0.593   0.595
  0.597   0.599   0.600   0.604   0.607   0.609   0.610   0.613
  0.617   0.619   0.620   0.621   0.621   0.625   0.626   0.631
  0.632   0.632   0.635   0.636   0.637   0.639   0.640   0.646
  0.649   0.651   0.652   0.655   0.661   0.663   0.664   0.669
  0.670   0.674   0.675   0.678   0.680   0.681   0.689   0.693
  0.698   0.703   0.705   0.708   0.714   0.715   0.717   0.719
  0.725   0.731   0.737   0.739   0.740   0.746   0.747   0.749
  0.752   0.752   0.755   0.758   0.761   0.762   0.765   0.769
  0.770   0.771   0.773   0.778   0.780   0.782   0.786   0.787
  0.792   0.798   0.799   0.800   0.803   0.805   0.809   0.811
  0.811   0.813   0.814   0.819   0.821   0.822   0.825   0.826
  0.827   0.829   0.831   0.832   0.834   0.835   0.836   0.838
  0.839   0.841   0.843   0.845   0.847   0.849   0.852   0.856
  0.858   0.861   0.864   0.865   0.866   0.868   0.871   0.872
  0.873   0.875   0.877   0.879   0.882   0.885   0.887   0.890
  0.895   0.895   0.898   0.900   0.901   0.906   0.907   0.909
  0.911   0.914   0.918   0.919   0.922   0.925   0.927   0.931
  0.932   0.934   0.937   0.940   0.941   0.944   0.945   0.946
  0.951   0.952   0.955   0.957   0.960   0.962   0.964   0.966
  0.966   0.970   0.972   0.976   0.977   0.981   0.981   0.982
  0.987   0.990   0.993   0.994   0.999   1.002   1.004   1.007
  1.010   1.013   1.014   1.016   1.018   1.023   1.026   1.029
  1.031   1.033   1.034   1.038   1.042   1.043   1.045   1.050
  1.050   1.051   1.059   1.061   1.068   1.070   1.074   1.076
  1.082   1.088   1.091   1.096   1.098   1.103   1.107   1.109
  1.117   1.121   1.122   1.125   1.130   1.130   1.134   1.140
  1.143   1.147   1.150   1.155   1.162   1.166   1.174   1.185
  1.188   1.192   1.197   1.205   1.209   1.215   1.216   1.228
  1.237   1.239   1.244   1.248   1.253   1.253   1.257   1.258
  1.264   1.277   1.279   1.284   1.289   1.291   1.293   1.302
  1.304   1.307   1.311   1.311   1.313   1.315   1.322   1.328
  1.330   1.337   1.345   1.352   1.354   1.357   1.365   1.367
  1.373   1.374   1.377   1.383   1.384   1.389   1.392   1.393
  1.399   1.409   1.412   1.414   1.421   1.425   1.426   1.430
  1.436   1.437   1.446   1.449   1.453   1.466   1.468   1.469
  1.470   1.474   1.478   1.484   1.487   1.493   1.498   1.500
  1.515   1.516   1.519   1.520   1.531   1.536   1.546   1.560
  1.563   1.568   1.579   1.586   1.586   1.589   1.596   1.597
  1.604   1.615   1.619   1.622   1.623   1.634   1.642   1.650
  1.659   1.660   1.666   1.672   1.674   1.676   1.678   1.683
  1.684   1.687   1.690   1.692   1.693   1.698   1.702   1.706
  1.709   1.713   1.714   1.715   1.718   1.731   1.736   1.737
  1.745   1.747   1.757   1.759   1.764   1.771   1.774   1.786
  1.788   1.793   1.797   1.799   1.801   1.812   1.815   1.816
  1.819   1.820   1.823   1.829   1.829   1.838   1.839   1.840
  1.846   1.849   1.849   1.857   1.861   1.862   1.867   1.873
  1.874   1.875   1.876   1.877   1.886   1.888   1.890   1.895
  1.899   1.906   1.907   1.907   1.912   1.914   1.914   1.922
  1.924   1.925   1.926   1.935   1.936   1.938   1.939   1.940
  1.948   1.953   1.960   1.963   1.967   1.974   1.976   1.981
  1.984   1.989   2.001   2.010   2.013   2.015   2.020   2.021
  2.029   2.029   2.032   2.042   2.044   2.055   2.061   2.065
  2.071   2.074   2.076   2.080   2.087   2.089   2.091   2.097
  2.101   2.102   2.105   2.112   2.117   2.117   2.121   2.122
  2.129   2.133   2.134   2.136   2.146   2.150   2.151   2.154
  2.155   2.155   2.159   2.159   2.166   2.174   2.176   2.183
  2.184   2.190   2.200   2.202   2.203   2.208   2.210   2.212
  2.217   2.221   2.221   2.224   2.229   2.231   2.236   2.237
  2.240   2.247   2.255   2.258   2.259   2.264   2.273   2.276
  2.285   2.286   2.289   2.290   2.293   2.294   2.294   2.297
  2.304   2.305   2.309   2.311   2.319   2.324   2.326   2.330
  2.334   2.337   2.338   2.345   2.348   2.351   2.352   2.358
  2.369   2.374   2.375   2.378   2.385   2.391   2.392   2.393
  2.396   2.398   2.402   2.409   2.412   2.414   2.417   2.418
  2.419   2.422   2.422   2.430   2.431   2.435   2.437   2.444
  2.445   2.447   2.450   2.454   2.457   2.459   2.461   2.466
  2.469   2.471   2.476   2.481   2.486   2.488   2.496   2.500
  2.504   2.509   2.516   2.523   2.525   2.530   2.532   2.535
  2.540   2.543   2.545   2.547   2.550   2.554   2.555   2.560
  2.568   2.572   2.574   2.575   2.581   2.582   2.589   2.596
  2.601   2.604   2.612   2.616   2.624   2.630   2.636   2.639
  2.646   2.654   2.656   2.660   2.663   2.667   2.668   2.679
  2.682   2.684   2.686   2.687   2.690   2.697   2.697   2.700
  2.707   2.713   2.715   2.722   2.725   2.725   2.729   2.735
  2.743   2.752   2.755   2.758   2.767   2.778   2.783   2.786
  2.788   2.791   2.802   2.812   2.815   2.819   2.826   2.829
  2.830   2.838   2.839   2.845   2.855   2.862   2.863   2.864
  2.869   2.876   2.878   2.883   2.885   2.886   2.888   2.890
  2.899   2.905   2.913   2.922   2.934   2.937   2.939   2.946
  2.951   2.955   2.958   2.969   2.979   2.988   3.012   3.022
  3.031   3.034   3.040   3.050   3.055   3.085   3.092   3.117
  3.155   3.177   3.187   3.194   3.200   3.207   3.225   3.234
  3.237   3.247   3.250   3.252   3.257   3.272   3.278   3.280
  3.283   3.292   3.297   3.298   3.310   3.318   3.318   3.329
  3.332   3.343   3.361   3.369   3.390   3.414   3.431   3.443
  3.448   3.451   3.460   3.471   3.485   3.495   3.532   3.537
  3.551   3.557   3.560   3.569   3.576   3.587   3.593   3.595
  3.607   3.621   3.734   3.750   3.849   3.854   3.898   3.901
  3.923   3.942   3.948   3.959   3.969   3.969   3.981   3.988
  4.030   4.056   4.063   4.069   4.070   4.092   4.116   4.119
  4.126   4.128   4.138   4.141   4.144   4.157   4.179   4.188
  4.198   4.200   4.219   4.241   4.245   4.255   4.265   4.270
  4.272   4.277   4.323   4.328   4.371   4.374   4.380   4.384
  4.413   4.425   4.433   4.455   4.456   4.465   4.487   4.489
  4.491   4.500   4.522   4.544   4.585   4.593   4.652   4.666
  4.684   4.690   4.704   4.707   4.746   4.756   4.763   4.800
 --------------------------------------------------------------
 
          Ground-State Mulliken Net Atomic Charges

     Atom                 Charge (a.u.)
  ----------------------------------------
      1 C                     0.260408
      2 C                    -0.121581
      3 N                    -0.483265
      4 C                    -0.093373
      5 C                     0.091343
      6 C                     0.033061
      7 C                     0.029822
      8 C                     0.059112
      9 C                     0.285438
     10 N                    -0.532083
     11 N                    -0.570193
     12 C                     0.166969
     13 C                     0.259290
     14 S                     0.610228
     15 N                    -0.521707
     16 C                    -0.196771
     17 S                     0.307519
     18 C                    -0.147528
     19 C                    -0.216386
     20 S                     0.272235
     21 C                     0.174321
     22 C                     0.051183
     23 C                    -0.294713
     24 C                    -0.058146
     25 N                    -0.432327
     26 S                     0.277053
     27 C                     0.117425
     28 C                    -0.306559
     29 C                    -0.230514
     30 H                     0.100562
     31 H                     0.114812
     32 H                     0.120769
     33 H                     0.127304
     34 H                     0.130646
     35 H                     0.126866
     36 H                     0.116246
     37 H                     0.134313
     38 H                     0.104112
     39 C                    -0.187007
     40 H                     0.118705
     41 H                     0.096118
     42 H                     0.086307
     43 C                    -0.172464
     44 H                     0.098082
     45 C                    -0.177851
     46 H                     0.098424
     47 H                     0.092273
     48 H                     0.086126
     49 C                    -0.168307
     50 H                     0.097706
     51 C                    -0.318008
     52 H                     0.095901
     53 H                     0.105792
     54 H                     0.097399
     55 H                     0.102554
     56 C                     0.266152
     57 C                    -0.113918
     58 N                    -0.484258
     59 C                    -0.086701
     60 C                     0.080864
     61 C                     0.045809
     62 C                     0.013690
     63 C                     0.063339
     64 C                     0.262023
     65 N                    -0.527172
     66 N                    -0.585057
     67 C                     0.155530
     68 C                     0.302060
     69 S                     0.653947
     70 N                    -0.554774
     71 C                    -0.182424
     72 S                     0.306360
     73 C                    -0.122438
     74 C                    -0.262418
     75 S                     0.261946
     76 C                     0.169845
     77 C                     0.083099
     78 C                    -0.311572
     79 C                    -0.047471
     80 N                    -0.431493
     81 S                     0.255135
     82 C                     0.132768
     83 C                    -0.313043
     84 C                    -0.232079
     85 H                     0.097418
     86 H                     0.111465
     87 H                     0.107400
     88 H                     0.116078
     89 H                     0.133470
     90 H                     0.125886
     91 H                     0.116553
     92 H                     0.127676
     93 H                     0.101762
     94 C                    -0.209912
     95 H                     0.121736
     96 H                     0.100146
     97 H                     0.112060
     98 C                    -0.180696
     99 H                     0.099638
    100 C                    -0.172579
    101 H                     0.095454
    102 H                     0.093257
    103 H                     0.094031
    104 C                    -0.178031
    105 H                     0.098244
    106 C                    -0.328028
    107 H                     0.100079
    108 H                     0.097728
    109 H                     0.105363
    110 H                     0.098408
  ----------------------------------------
  Sum of atomic charges =     0.000000

 -----------------------------------------------------------------
                    Cartesian Multipole Moments
 -----------------------------------------------------------------
    Charge (ESU x 10^10)
                 0.0000
    Dipole Moment (Debye)
         X      -1.6113      Y      -1.2739      Z      -0.6386
       Tot       2.1510
    Quadrupole Moments (Debye-Ang)
        XX    -389.9643     XY      10.5880     YY    -445.9791
        XZ      11.3957     YZ      -9.8436     ZZ    -441.6481
    Octopole Moments (Debye-Ang^2)
       XXX    -592.0385    XXY      94.4351    XYY     -26.6401
       YYY     -86.2497    XXZ    -110.7963    XYZ     -15.1789
       YYZ     100.7484    XZZ     -60.2071    YZZ     -55.6527
       ZZZ       5.3585
    Hexadecapole Moments (Debye-Ang^3)
      XXXX  -76836.6405   XXXY     456.9565   XXYY  -19532.5911
      XYYY    -739.4173   YYYY  -36164.3972   XXXZ    1939.2374
      XXYZ      52.6555   XYYZ    -456.0222   YYYZ    -239.9377
      XXZZ  -15266.5050   XYZZ     -15.7937   YYZZ   -7411.4022
      XZZZ      15.6004   YZZZ    -219.1249   ZZZZ   -9480.6504
 -----------------------------------------------------------------
Archival summary:
1\1\mn426\SP\ProcedureUnspecified\6-31G**\8105042\afmv_a\SatOct615:59:562018SatOct615:59:562018\0\\#,ProcedureUnspecified,6-31G**,\\0,1\S\N,1,1.63763\C,2,1.35642,1,104.898\C,3,1.39759,2,121.381,1,-173.41,0\N,4,1.35664,3,115.831,2,-179.907,0\C,5,1.34678,4,122.401,3,-3.98575,0\H,6,1.08929,5,116.54,4,-166.732,0\C,3,1.39943,2,115.135,1,6.35264,0\N,8,1.36503,3,114.056,2,-5.43552,0\C,6,1.40787,5,125.148,4,1.76611,0\C,4,1.46952,3,125.503,2,5.99966,0\C,11,1.35515,4,126.063,3,-159.067,0\C,12,1.42933,11,119.334,4,173.936,0\C,13,1.39801,12,112.315,11,3.27787,0\C,13,1.43128,12,111.935,11,-179.608,0\H,15,1.08357,13,124.15,12,-171.193,0\C,15,1.3745,13,114.21,12,3.95283,0\H,17,1.0819,15,129.933,13,-176.142,0\C,14,1.47314,13,125.743,12,169.88,0\N,19,1.30209,14,119.998,13,7.19108,0\C,20,1.36752,19,110.74,14,179.014,0\H,21,1.0816,20,116.98,19,-177.492,0\C,21,1.36433,20,113.67,19,-6.20002,0\H,23,1.08226,21,125.685,20,178.048,0\C,10,1.48808,6,120.872,5,-179.016,0\C,25,1.39256,10,118.864,6,-37.7836,0\H,26,1.08949,25,123.8,10,3.69064,0\N,26,1.32285,25,122.843,10,-171.728,0\C,28,1.38694,26,120.117,25,-4.99057,0\C,29,1.37377,28,121.513,26,1.8327,0\H,30,1.08588,29,122.798,28,178.787,0\C,25,1.40465,10,124.785,6,141.843,0\H,32,1.08626,25,120.192,10,1.37817,0\C,29,1.47324,28,117.762,26,-174.226,0\H,34,1.09702,29,110.498,28,147.107,0\H,34,1.09767,29,107.845,28,32.3413,0\C,34,1.58381,29,113.183,28,-91.5769,0\H,37,1.0971,34,114.943,29,-48.4379,0\H,37,1.09731,34,104.924,29,63.8173,0\C,37,1.611,34,115.487,29,176.184,0\H,40,1.09665,37,107.575,34,-174.916,0\H,40,1.09718,37,111.797,34,-59.2122,0\C,40,1.51792,37,110.136,34,65.2175,0\H,43,1.09701,40,101.641,37,-43.1001,0\H,43,1.09728,40,112.823,37,64.4422,0\C,43,1.53039,40,110.411,37,-163.705,0\H,46,1.09663,43,117.102,40,-47.4735,0\H,46,1.09688,43,109.504,40,72.9239,0\C,46,1.55156,43,116.609,40,-166.005,0\H,49,1.09638,46,116.105,43,64.6413,0\H,49,1.09724,46,112.985,43,-59.6293,0\H,49,1.09725,46,105.05,43,-169.475,0\S,12,1.71123,11,128.34,4,0.143987,0\S,11,1.75234,4,126.683,3,21.029,0\S,23,1.76861,21,113.345,20,3.95209,0\H,38,2.34938,37,126.097,34,-50.9733,0\C,56,1.08645,38,127.194,37,170.024,0\C,57,1.39227,56,125.642,38,-44.8566,0\H,58,1.0867,57,122.627,56,-0.1965,0\C,57,1.42133,56,116.463,38,132.717,0\N,60,1.34995,57,121.956,56,176.85,0\C,61,1.34324,60,120.778,57,6.80632,0\H,62,1.0896,61,117.768,60,171.916,0\C,62,1.41408,61,121.454,60,-4.17278,0\C,60,1.55186,57,123.371,56,-2.09702,0\H,65,1.09733,60,102.792,57,-55.0424,0\H,65,1.09741,60,108.437,57,-164.625,0\C,65,1.53563,60,117.244,57,67.5187,0\H,68,1.09682,65,109.048,60,-175.138,0\H,68,1.09714,65,105.287,60,-60.1395,0\C,68,1.56533,65,115.031,60,63.4686,0\H,71,1.09676,68,109.016,65,63.8781,0\H,71,1.09678,68,104.481,65,-55.0803,0\C,71,1.53802,68,114.664,65,-178.457,0\H,74,1.09671,71,105.469,68,-74.073,0\H,74,1.09683,71,107.755,68,35.3778,0\C,74,1.55466,71,110.434,68,162.64,0\H,77,1.09693,74,104.786,71,55.3434,0\H,77,1.0975,74,110.179,71,-53.4383,0\C,77,1.50529,74,108.903,71,-177.995,0\H,80,1.09667,77,116.524,74,172.961,0\H,80,1.09729,77,111.997,74,41.8101,0\H,80,1.09748,77,108.973,74,-72.3036,0\C,64,1.58281,62,117.292,61,-179.026,0\C,84,1.37716,64,124.263,62,-37.2418,0\N,85,1.31157,84,127.84,64,-5.20421,0\C,85,1.39029,84,120.808,64,-176.886,0\N,87,1.35663,85,117.355,84,177.911,0\C,84,1.41533,64,120.161,62,144.726,0\H,89,1.08926,84,117.139,64,-4.78504,0\N,89,1.36654,84,125.844,64,-172.28,0\C,91,1.37939,89,116.187,84,-12.2494,0\C,92,1.47146,91,112.361,89,-177.405,0\C,93,1.43698,92,126.159,91,131.741,0\C,94,1.39902,93,114.718,92,-172.916,0\C,95,1.37972,94,114.902,93,6.10234,0\C,96,1.3934,95,125.633,94,171.288,0\N,97,1.33752,96,119.516,95,28.1571,0\C,98,1.39165,97,109.452,96,-174.996,0\H,99,1.08172,98,116.33,97,172.372,0\C,99,1.38929,98,114.438,97,-13.193,0\H,101,1.08184,99,125.91,98,-165.592,0\C,95,1.45466,94,107.639,93,176.04,0\H,103,1.0842,95,122.924,94,179.485,0\C,103,1.38454,95,112.596,94,0.782223,0\H,105,1.08163,103,127.618,95,-175.946,0\S,88,1.6011,87,103.851,85,-0.597768,0\S,97,1.74386,96,123.774,95,-167.607,0\S,94,1.74613,93,126.025,92,-2.60742,0\S,96,1.75709,95,110.462,94,6.382,0\\\@

 Total job time:  97.61s(wall), 1072.98s(cpu) 
 Sat Oct  6 15:59:56 2018

        *************************************************************
        *                                                           *
        *  Thank you very much for using Q-Chem.  Have a nice day.  *
        *                                                           *
        *************************************************************


