
Running Job 1 of 1 ./10/69.qcin
qchem ./10/69.qcin_31993.0 /tmpu/cab_g/afmv_a/scratch_qchem/qchem31993/ 1
/tmpu/appuserlic/qchem4.4/serial-multicore/exe/qcprog.exe_s ./10/69.qcin_31993.0 /tmpu/cab_g/afmv_a/scratch_qchem/qchem31993/
Check license passed

                  Welcome to Q-Chem
     A Quantum Leap Into The Future Of Chemistry


 Q-Chem 4.4, Q-Chem, Inc., Pleasanton, CA (2016)

 Y. Shao,  Z. Gan,  E. Epifanovsky,  A. T. B. Gilbert,  M. Wormit,  
 J. Kussmann,  A. W. Lange,  A. Behn,  J. Deng,  X. Feng,  D. Ghosh,  
 M. Goldey,  P. R. Horn,  L. D. Jacobson,  I. Kaliman,  F. Rob,  
 R. Z. Khaliullin,  T. Kus,  A. Landau,  J. Liu,  E. I. Proynov,  Y. M. Rhee,  
 R. M. Richard,  M. A. Rohrdanz,  R. P. Steele,  E. J. Sundstrom,  
 H. L. Woodcock III,  P. M. Zimmerman,  D. Zuev,  B. Albrecht,  E. Alguire,  
 B. Austin,  S. A. Baeppler,  G. J. O. Beran,  Y. A. Bernard,  E. Berquist,  
 K. Brandhorst,  K. B. Bravaya,  S. T. Brown,  D. Casanova,  C.-M. Chang,  
 Y. Chen,  S. H. Chien,  K. D. Closser,  M. P. Coons,  D. L. Crittenden,  
 S. Dasgupta,  M. Diedenhofen,  R. A. DiStasio Jr.,  H. Do,  A. D. Dutoi,  
 R. G. Edgar,  P.-T. Fang,  S. Fatehi,  Q. Feng,  L. Fusti-Molnar,  
 A. Ghysels,  A. Golubeva-Zadorozhnaya,  J. Gomes,  A. Gunina,  
 M. W. D. Hanson-Heine,  P. H. P. Harbach,  A. W. Hauser,  J. E. Herr,  
 E. G. Hohenstein,  Z. C. Holden,  K. Hui,  T.-C. Jagau,  H. Ji,  B. Kaduk,  
 K. Khistyaev,  Jaehoon Kim,  Jihan Kim,  R. A. King,  P. Klunzinger,  
 K. Koh,  D. Kosenkov,  T. Kowalczyk,  C. M. Krauter,  A. Kunitsa,  
 K. U. Lao,  A. Laurent,  K. V. Lawler,  J. Lee,  D. Lefrancois,  S. Lehtola,  
 S. V. Levchenko,  C. Y. Lin,  Y.-S. Lin,  F. Liu,  E. Livshits,  
 R. C. Lochan,  A. Luenser,  P. Manohar,  S. F. Manzer,  S.-P. Mao,  Y. Mao,  
 N. Mardirossian,  A. V. Marenich,  L. A. Martinez-Martinez,  S. A. Maurer,  
 N. J. Mayhall,  J.-M. Mewes,  A. F. Morrison,  K. Nanda,  T. S. Nguyen-Beck,  
 C. M. Oana,  R. Olivares-Amaya,  D. P. O'Neill,  J. A. Parkhill,  
 T. M. Perrine,  R. Peverati,  P. A. Pieniazek,  F. Plasser,  A. Prociuk,  
 D. R. Rehn,  E. Rosta,  N. J. Russ,  N. Sergueev,  S. M. Sharada,  
 S. Sharma,  D. W. Small,  A. Sodt,  T. Stauch,  T. Stein,  D. Stuck,  
 Y.-C. Su,  A. J. W. Thom,  T. Tsuchimochi,  L. Vogt,  O. Vydrov,  T. Wang,  
 M. A. Watson,  J. Wenzel,  A. White,  C. F. Williams,  V. Vanovschi,  
 K. Yao,  S. Yeganeh,  S. R. Yost,  Z.-Q. You,  I. Y. Zhang,  X. Zhang,  
 Y. Zhao,  B. R. Brooks,  G. K. L. Chan,  D. M. Chipman,  C. J. Cramer,  
 W. A. Goddard III,  M. S. Gordon,  W. J. Hehre,  A. Klamt,  
 H. F. Schaefer III,  M. W. Schmidt,  C. D. Sherrill,  D. G. Truhlar,  
 A. Warshel,  X. Xu,  A. Aspuru-Guzik,  R. Baer,  A. T. Bell,  N. A. Besley,  
 J.-D. Chai,  A. Dreuw,  B. D. Dunietz,  T. R. Furlani,  S. R. Gwaltney,  
 C.-P. Hsu,  Y. Jung,  J. Kong,  D. S. Lambrecht,  W. Liang,  C. Ochsenfeld,  
 V. A. Rassolov,  L. V. Slipchenko,  J. E. Subotnik,  T. Van Voorhis,  
 J. M. Herbert,  A. I. Krylov,  P. M. W. Gill,  M. Head-Gordon

 Contributors to earlier versions of Q-Chem not listed above: 
 R. D. Adamson,  J. Baker,  E. F. C. Byrd,  A. K. Chakraborty,  C.-L. Cheng,  
 H. Dachsel,  R. J. Doerksen,  G. Hawkins,  A. Heyden,  S. Hirata,  
 G. Kedziora,  F. J. Keil,  C. Kelley,  P. P. Korambath,  W. Kurlancheek,  
 A. M. Lee,  M. S. Lee,  D. Liotard,  I. Lotan,  P. E. Maslen,  N. Nair,  
 D. Neuhauser,  R. Olson,  B. Peters,  J. Ritchie,  N. E. Schultz,  
 N. Shenvi,  A. C. Simmonett,  K. S. Thanthiriwatte,  Q. Wu,  W. Zhang

 Please cite Q-Chem as follows:
 Y. Shao et al., Mol. Phys. 113, 184-215 (2015)
 DOI: 10.1080/00268976.2014.952696

 Q-Chem 4.4.2 for Intel X86 Linux

 Parts of Q-Chem use Armadillo 5.200.1 (Boston Tea Smuggler).
 http://arma.sourceforge.net/

 Q-Chem begins on Sat Oct  6 16:12:11 2018  

Host: 
0

     Scratch files written to /tmpu/cab_g/afmv_a/scratch_qchem/qchem31993//
 Dec716 11556_ 22328  22283 4050   
Processing $rem in /tmpu/appuserlic/qchem4.4/serial-multicore/config/preferences.
 MEM_TOTAL  2000 
FILE_GEOM_ORG=        593

Checking the input file for inconsistencies... 	...done.

--------------------------------------------------------------
User input:
--------------------------------------------------------------
$comment
SP
$end

$rem
MEM_STATIC 5000
MEM_TOTAL 20000
JOBTYPE SP
EXCHANGE B3LYP
BASIS 6-31g(d,p)
$end

$molecule
0 1
C         -14.369000     -5.939000    -10.265000
C         -15.056000     -6.809000    -11.066000
N         -13.385000     -6.259000     -9.402000
C         -14.750000     -8.126000    -10.882000
C         -12.992000     -7.573000     -9.296000
C         -13.723000     -8.556000    -10.002000
C         -13.223000     -9.955000    -10.010000
C         -12.504000    -10.461000    -11.095000
C         -13.366000    -10.860000     -8.975000
N         -12.051000    -11.721000    -11.221000
N         -13.926000    -10.492000     -7.798000
C         -13.018000    -12.160000     -9.071000
C         -12.328000    -12.576000    -10.222000
S         -14.010000    -11.845000     -6.904000
N         -13.129000    -12.823000     -7.885000
C         -11.830000    -13.954000    -10.455000
S         -12.345000    -15.383000     -9.436000
C         -10.959000    -14.337000    -11.463000
C         -11.207000    -16.415000    -10.282000
S         -10.045000    -13.462000    -12.755000
C         -10.531000    -15.643000    -11.267000
C         -10.748000    -17.706000     -9.792000
C          -9.240000    -14.990000    -13.113000
C          -9.583000    -16.033000    -12.241000
N         -10.151000    -18.513000    -10.647000
S         -11.226000    -18.369000     -8.197000
C          -9.813000    -19.678000     -9.928000
C         -10.370000    -19.820000     -8.680000
C         -14.693000     -4.435000    -10.309000
H         -15.770000     -6.448000    -11.801000
H         -15.270000     -8.893000    -11.448000
H         -12.143000     -7.830000     -8.664000
H         -12.278000     -9.858000    -11.973000
H          -8.533000    -15.095000    -13.926000
H          -9.017000    -16.957000    -12.265000
H          -9.180000    -20.373000    -10.463000
H         -10.184000    -20.655000     -8.018000
H         -13.746000     -3.883000    -10.353000
C         -15.558000     -3.849000     -9.118000
H         -15.165000     -4.160000    -11.261000
H         -16.445000     -4.432000     -8.841000
H         -16.055000     -2.918000     -9.419000
C         -14.810000     -3.639000     -7.769000
H         -14.774000     -4.575000     -7.197000
C         -15.468000     -2.486000     -6.888000
H         -13.760000     -3.413000     -7.990000
H         -16.553000     -2.639000     -6.937000
H         -15.128000     -1.521000     -7.284000
C         -15.122000     -2.596000     -5.386000
H         -15.724000     -3.390000     -4.928000
C         -15.589000     -1.340000     -4.554000
H         -14.058000     -2.784000     -5.192000
H         -15.314000     -0.467000     -5.158000
H         -15.190000     -1.272000     -3.534000
H         -16.683000     -1.417000     -4.532000
C         -14.219000    -15.421000    -15.172000
C         -13.537000    -16.020000    -14.059000
N         -15.286000    -14.671000    -14.939000
C         -14.069000    -15.842000    -12.754000
C         -15.702000    -14.448000    -13.676000
C         -15.168000    -15.027000    -12.506000
C         -15.649000    -14.789000    -11.103000
C         -15.745000    -15.866000    -10.290000
C         -16.091000    -13.529000    -10.601000
N         -16.082000    -15.765000     -9.000000
N         -15.952000    -12.355000    -11.268000
C         -16.589000    -13.460000     -9.293000
C         -16.552000    -14.625000     -8.484000
S         -16.512000    -11.256000    -10.228000
N         -16.851000    -12.207000     -8.935000
C         -16.948000    -14.700000     -7.086000
S         -16.178000    -15.723000     -5.880000
C         -17.979000    -14.013000     -6.501000
C         -17.345000    -15.307000     -4.694000
S         -19.156000    -13.141000     -7.270000
C         -18.228000    -14.287000     -5.182000
C         -17.279000    -15.702000     -3.344000
C         -19.796000    -12.722000     -5.676000
C         -19.245000    -13.446000     -4.691000
N         -16.114000    -16.113000     -2.936000
S         -18.439000    -15.384000     -2.067000
C         -16.139000    -16.258000     -1.567000
C         -17.212000    -15.802000     -0.922000
C         -13.735000    -15.452000    -16.535000
H         -12.550000    -16.466000    -14.141000
H         -13.646000    -16.350000    -11.893000
H         -16.555000    -13.774000    -13.602000
H         -15.431000    -16.799000    -10.754000
H         -20.604000    -12.019000     -5.517000
H         -19.641000    -13.528000     -3.685000
H         -15.291000    -16.715000     -1.073000
H         -17.446000    -15.954000      0.124000
H         -14.334000    -16.148000    -17.135000
C         -12.167000    -15.625000    -16.680000
H         -13.962000    -14.460000    -16.946000
H         -11.839000    -16.643000    -16.433000
H         -11.668000    -14.964000    -15.961000
C         -11.671000    -15.193000    -18.101000
H         -12.243000    -15.722000    -18.873000
C         -10.160000    -15.264000    -18.430000
H         -11.944000    -14.145000    -18.277000
H          -9.935000    -16.295000    -18.729000
H          -9.577000    -15.109000    -17.513000
C          -9.647000    -14.299000    -19.527000
H         -10.403000    -14.232000    -20.319000
C          -8.263000    -14.692000    -20.142000
H          -9.580000    -13.260000    -19.181000
H          -8.263000    -15.777000    -20.301000
H          -7.432000    -14.294000    -19.547000
H          -8.205000    -14.213000    -21.127000
$end

--------------------------------------------------------------
 ----------------------------------------------------------------
             Standard Nuclear Orientation (Angstroms)
    I     Atom           X                Y                Z
 ----------------------------------------------------------------
    1      C       3.2655124591     6.2526385638    -0.1258290589
    2      C       2.5372433661     5.7812149646     0.9314570511
    3      N       3.2898286775     5.7352221389    -1.3696594190
    4      C       1.8524678493     4.6258728817     0.6901104892
    5      C       2.5108564084     4.6367479099    -1.6504397108
    6      C       1.8129906790     4.0143433838    -0.5899294423
    7      C       0.8590355386     2.9192402737    -0.9029530329
    8      C      -0.5156956891     3.1544221867    -0.9738439295
    9      C       1.2090167362     1.6133199704    -1.1906756819
   10      N      -1.4627232055     2.2271161210    -1.2017196494
   11      N       2.5083558497     1.2444690336    -1.2907749054
   12      C       0.3100394039     0.6180096351    -1.3373627380
   13      C      -1.0532569899     0.9569758224    -1.3593141927
   14      S       2.4970206949    -0.3624428796    -1.5244554941
   15      N       0.8812633699    -0.5504992816    -1.7457450250
   16      C      -2.1595710576    -0.0098201408    -1.5655949460
   17      S      -1.9266247350    -1.8217446827    -1.4745319714
   18      C      -3.4822844208     0.3198908799    -1.8168199480
   19      C      -3.5866497805    -2.0752543498    -1.9803320276
   20      S      -4.3795923647     1.8677812958    -2.0798003926
   21      C      -4.2070889543    -0.8096994526    -2.1716721272
   22      C      -4.1030602131    -3.3311972273    -2.5031988881
   23      C      -5.7919051883     0.8910227354    -2.4826504925
   24      C      -5.5430129858    -0.4886132165    -2.5058735797
   25      N      -5.4114802252    -3.4877098074    -2.5503569645
   26      S      -3.0695877811    -4.7682081732    -2.7842901072
   27      C      -5.6415234837    -4.7713279491    -3.0868591224
   28      C      -4.5559661709    -5.6085656684    -3.1791376255
   29      C       4.1573392290     7.4948685399     0.0486349744
   30      H       2.5069678727     6.3198393406     1.8744889573
   31      H       1.2744132424     4.1568932935     1.4806520867
   32      H       2.4595915940     4.2620202696    -2.6718236320
   33      H      -0.9446831027     4.1412197932    -0.8072027498
   34      H      -6.7550985731     1.3312821259    -2.7068672906
   35      H      -6.2920124074    -1.1595841785    -2.9102321267
   36      H      -6.6745594058    -4.9835435408    -3.3271512908
   37      H      -4.5887349427    -6.6110941433    -3.5840176874
   38      H       3.9883329268     8.1593538856    -0.8077207316
   39      C       5.7160433264     7.2488715253     0.1901588436
   40      H       3.8161392428     8.1114138916     0.8901618003
   41      H       6.0121620512     6.4542323000     0.8860390074
   42      H       6.2007759123     8.0984611735     0.6877558190
   43      C       6.4748737657     6.8999689828    -1.1235566432
   44      H       6.3911091517     5.8283992626    -1.3455877769
   45      C       8.0087664253     7.3269463001    -1.0652670289
   46      H       5.9618498632     7.3930468452    -1.9578813384
   47      H       8.3782834507     7.0225519667    -0.0784356057
   48      H       8.0680326140     8.4052512262    -1.2586242245
   49      C       8.8929347869     6.5569182227    -2.0718071763
   50      H       9.0844947702     5.5456960319    -1.6932065244
   51      C      10.3591526943     7.1305851226    -2.1664662273
   52      H       8.4618952281     6.4959026027    -3.0795561494
   53      H      10.2480489994     8.2211549771    -2.1961876252
   54      H      10.9602679189     6.7590748936    -3.0060289923
   55      H      10.8238579376     6.8542511300    -1.2120357368
   56      C      -5.2937150755     0.6281075956     2.8930694817
   57      C      -5.0967165599    -0.3050354948     1.8192307798
   58      N      -4.2586725419     0.9565131987     3.6520916904
   59      C      -3.8149489048    -0.8934782497     1.6502935051
   60      C      -3.0360305617     0.4482495957     3.3975947395
   61      C      -2.7209968704    -0.5229990374     2.4245958361
   62      C      -1.3594292311    -1.0993248566     2.1592731768
   63      C      -1.2814954103    -2.4336864586     1.9506600549
   64      C      -0.1430306485    -0.3551727662     2.1990243366
   65      N      -0.1376459753    -3.0446181439     1.6247138232
   66      N      -0.0834070145     0.9976894908     2.2922699050
   67      C       1.0692682054    -1.0316284040     2.0083196987
   68      C       1.0392964048    -2.4145894919     1.6927324357
   69      S       1.4947305074     1.3183299509     2.1939202363
   70      N       2.0966121683    -0.1896153368     1.9593771156
   71      C       2.1970902143    -3.2392541436     1.3824314419
   72      S       2.2029539716    -4.5629011134     0.2240751428
   73      C       3.4401912475    -3.1312217171     1.9482793155
   74      C       3.8047974629    -5.0062970791     0.6472044928
   75      S       3.8566299703    -2.2256668010     3.2687425236
   76      C       4.3716066726    -4.0594446706     1.5639546421
   77      C       4.5554650913    -5.9951671699    -0.0172614998
   78      C       5.5223103624    -2.7710999302     3.0363451637
   79      C       5.6196734320    -3.7715198283     2.1488303975
   80      N       4.1198917034    -6.3328624541    -1.1957553347
   81      S       6.1697904227    -6.5654877883     0.3650225786
   82      C       5.0545844911    -7.1349930472    -1.8111795008
   83      C       6.2405273304    -7.2607487501    -1.2170287749
   84      C      -6.5201950484     1.3614244166     3.1188554780
   85      H      -5.8283774499    -0.4637456605     1.0322794310
   86      H      -3.6389683504    -1.6724317799     0.9150546036
   87      H      -2.2519177258     0.8294044679     4.0512376267
   88      H      -2.2435912658    -2.9416981881     1.9766725088
   89      H       6.3633580799    -2.3989015286     3.6077128972
   90      H       6.4878854835    -4.4090968569     2.0252206640
   91      H       4.7994768671    -7.6121286183    -2.7488632146
   92      H       7.0293060685    -7.9479757855    -1.4954584862
   93      H      -7.0509869446     0.9551630709     3.9885845633
   94      C      -7.4158285874     1.5722455626     1.8292923705
   95      H      -6.2046751205     2.3664458042     3.4269028536
   96      H      -7.9095574429     0.6443259239     1.5128844669
   97      H      -6.7717053766     1.8718423461     0.9936907569
   98      C      -8.4500932195     2.7302957695     2.0320172801
   99      H      -9.0318886499     2.5557770149     2.9452895732
  100      C      -9.4016488749     3.1081041814     0.8708947031
  101      H      -7.9135897852     3.6588322518     2.2639506022
  102      H     -10.2544105645     2.4191773867     0.9050176036
  103      H      -8.9127638750     2.8949820076    -0.0884662279
  104      C      -9.9310032565     4.5632468522     0.8587808202
  105      H     -10.1364265469     4.8720927204     1.8911104679
  106      C     -11.2013052511     4.7846864616    -0.0274625673
  107      H      -9.1702106484     5.2892118734     0.5458984215
  108      H     -11.8794390094     3.9397364250     0.1419482988
  109      H     -10.9321618240     4.9822438290    -1.0722223015
  110      H     -11.6975677779     5.6879530832     0.3478545184
 ----------------------------------------------------------------
 Molecular Point Group                 C1    NOp =  1
 Largest Abelian Subgroup              C1    NOp =  1
 Nuclear Repulsion Energy = 12381.8439966915 hartrees
 There are      270 alpha and      270 beta electrons
 Requested basis set is 6-31G(d,p)
 There are 406 shells and 1262 basis functions

 Total QAlloc Memory Limit  20000 MB
 Mega-Array Size      4888 MB
 MEM_STATIC part      5000 MB
 A cutoff of  1.0D-08 yielded  14431 shell pairs
 There are    157015 function pairs
 
 -------------------------------------------------------
 OpenMP Integral Computing Module                       
 Release: version 1.0, May 2013, Q-Chem Inc. Pittsburgh 
 -------------------------------------------------------
 Integral Job Info:
 Integral job number is                      11
 Integral operator is                         1
 short-range coefficients                     0
 long-range coefficients              100000000
 Omega coefficients                           0
 if combine SR and LR in K                    0
 Integral screening is                        0
 Integral computing path is                   2
 max size of driver memory is            800000
 size of driver memory is                593474
 size of scratch memory is             15166112
 max col of scratch BK array               1296
 max len of scratch array in speh3          155
 max len of scratch index in speh4           18
 max int batch size is                      520
 min int batch size is                       52
 fixed nKL is                                52
 max L of basis functions is                  2
 order of int derivative is                   0
 number of shells is                        406
 number of basis is                        1262
 number of cartesian basis is              1262
 number of contracted shell pairs         14431
 number of primitive shell pairs          45760
 maxK2 (contraction) of shell pair           36
 max number of K2 of shell pair               1
 max number of CS2 of shell pair           1668
 max number of PS2 of shell pair           9120
 mem total for path MDJ                  353176
 -------------------------------------------------------
 Smallest overlap matrix eigenvalue = 3.99E-04

 Scale SEOQF with 1.000000e-02/1.000000e-02/1.000000e-01

 Standard Electronic Orientation quadrupole field applied
 Nucleus-field energy     =    -0.0000001127 hartrees
 Guess from superposition of atomic densities
 Warning:  Energy on first SCF cycle will be non-variational
 A restricted hybrid HF-DFT SCF calculation will be
 performed using Pulay DIIS extrapolation
 Exchange:     0.2000 Hartree-Fock + 0.0800 Slater + 0.7200 B88
 Correlation:  0.1900 VWN1RPA + 0.8100 LYP
 Using SG-1 standard quadrature grid
 SCF converges when DIIS error is below 1.0E-05
 using 16 threads for integral computing 
 -------------------------------------------------------
 OpenMP BLAS3 based DFT computing Module                
 Release: version 1.0, May 2013, Q-Chem Inc. Pittsburgh 
 -------------------------------------------------------
 ---------------------------------------
  Cycle       Energy         DIIS Error
 ---------------------------------------
    1   -5680.4357399313      2.16E-02
    2   -5662.4650080186      2.18E-03
    3   -5661.0130044227      3.36E-03
    4   -5663.3510953409      8.42E-04
    5   -5663.4825880399      3.37E-04
    6   -5663.4971524621      2.11E-04
    7   -5663.5050333709      8.34E-05
    8   -5663.5063027101      2.61E-05
    9   -5663.5064276638      8.95E-06 Convergence criterion met
 ---------------------------------------
 SCF time:  CPU 1089.11 s  wall 98.53 s
 SCF   energy in the final basis set = -5663.5064276638
 Total energy in the final basis set = -5663.5064276638
 
 --------------------------------------------------------------
 
                    Orbital Energies (a.u.)
 --------------------------------------------------------------
 
 Alpha MOs
 -- Occupied --
-88.990 -88.989 -88.928 -88.927 -88.925 -88.924 -88.916 -88.907
-14.386 -14.384 -14.383 -14.374 -14.349 -14.346 -14.345 -14.337
-14.330 -14.318 -10.272 -10.263 -10.262 -10.262 -10.257 -10.255
-10.249 -10.247 -10.245 -10.242 -10.236 -10.236 -10.234 -10.233
-10.232 -10.231 -10.230 -10.228 -10.228 -10.226 -10.225 -10.223
-10.222 -10.222 -10.218 -10.217 -10.217 -10.217 -10.216 -10.212
-10.211 -10.207 -10.205 -10.201 -10.199 -10.198 -10.195 -10.193
-10.187 -10.187 -10.182 -10.181 -10.180 -10.179 -10.178 -10.177
-10.175 -10.174 -10.171 -10.169  -8.045  -8.044  -7.988  -7.986
 -7.986  -7.984  -7.974  -7.970  -6.010  -6.009  -6.004  -6.003
 -6.003  -6.002  -5.951  -5.950  -5.950  -5.948  -5.948  -5.946
 -5.946  -5.944  -5.944  -5.943  -5.943  -5.941  -5.939  -5.935
 -5.934  -5.931  -5.930  -5.926  -1.045  -1.038  -0.978  -0.964
 -0.963  -0.962  -0.935  -0.935  -0.928  -0.909  -0.907  -0.896
 -0.859  -0.839  -0.836  -0.834  -0.813  -0.810  -0.809  -0.805
 -0.801  -0.799  -0.795  -0.791  -0.780  -0.778  -0.769  -0.762
 -0.754  -0.745  -0.741  -0.737  -0.730  -0.726  -0.714  -0.705
 -0.696  -0.689  -0.676  -0.672  -0.657  -0.653  -0.650  -0.640
 -0.639  -0.636  -0.630  -0.624  -0.611  -0.607  -0.598  -0.595
 -0.595  -0.587  -0.583  -0.576  -0.573  -0.573  -0.571  -0.563
 -0.552  -0.551  -0.540  -0.539  -0.527  -0.522  -0.520  -0.511
 -0.509  -0.508  -0.499  -0.497  -0.495  -0.486  -0.480  -0.477
 -0.474  -0.470  -0.467  -0.462  -0.461  -0.461  -0.450  -0.449
 -0.447  -0.444  -0.440  -0.437  -0.436  -0.433  -0.429  -0.426
 -0.426  -0.424  -0.420  -0.419  -0.417  -0.415  -0.414  -0.414
 -0.411  -0.410  -0.407  -0.407  -0.400  -0.398  -0.397  -0.394
 -0.392  -0.389  -0.388  -0.387  -0.386  -0.383  -0.381  -0.379
 -0.376  -0.373  -0.369  -0.368  -0.364  -0.361  -0.359  -0.356
 -0.355  -0.353  -0.353  -0.349  -0.347  -0.344  -0.342  -0.340
 -0.339  -0.336  -0.334  -0.333  -0.331  -0.320  -0.318  -0.317
 -0.315  -0.312  -0.311  -0.307  -0.307  -0.306  -0.302  -0.300
 -0.297  -0.295  -0.292  -0.289  -0.286  -0.285  -0.283  -0.280
 -0.279  -0.269  -0.261  -0.260  -0.256  -0.255  -0.253  -0.249
 -0.245  -0.242  -0.237  -0.231  -0.195  -0.193
 -- Virtual --
 -0.113  -0.110  -0.078  -0.073  -0.032  -0.029  -0.025  -0.023
 -0.018  -0.017  -0.014  -0.008  -0.007  -0.002  -0.002   0.004
  0.005   0.009   0.010   0.025   0.028   0.034   0.038   0.040
  0.042   0.054   0.061   0.066   0.069   0.080   0.089   0.093
  0.096   0.098   0.099   0.103   0.103   0.106   0.110   0.111
  0.115   0.116   0.116   0.120   0.123   0.126   0.127   0.129
  0.130   0.132   0.134   0.137   0.139   0.141   0.142   0.147
  0.147   0.149   0.150   0.154   0.155   0.160   0.161   0.164
  0.165   0.165   0.169   0.171   0.172   0.178   0.181   0.184
  0.188   0.189   0.191   0.193   0.195   0.197   0.198   0.200
  0.201   0.202   0.204   0.208   0.210   0.213   0.216   0.218
  0.219   0.222   0.224   0.231   0.231   0.234   0.237   0.240
  0.244   0.245   0.247   0.250   0.251   0.255   0.257   0.260
  0.261   0.273   0.273   0.274   0.277   0.278   0.282   0.284
  0.285   0.287   0.291   0.293   0.298   0.301   0.304   0.306
  0.309   0.311   0.314   0.317   0.319   0.322   0.326   0.329
  0.333   0.335   0.337   0.340   0.347   0.350   0.350   0.353
  0.357   0.359   0.361   0.365   0.369   0.371   0.371   0.373
  0.375   0.379   0.381   0.390   0.391   0.392   0.399   0.405
  0.409   0.418   0.419   0.422   0.423   0.433   0.436   0.437
  0.443   0.446   0.448   0.454   0.460   0.464   0.469   0.474
  0.484   0.487   0.488   0.490   0.493   0.496   0.498   0.498
  0.504   0.505   0.508   0.509   0.512   0.515   0.517   0.519
  0.522   0.525   0.528   0.529   0.530   0.533   0.534   0.535
  0.537   0.539   0.540   0.541   0.546   0.546   0.549   0.553
  0.554   0.556   0.558   0.561   0.562   0.564   0.566   0.568
  0.571   0.571   0.573   0.575   0.577   0.583   0.585   0.586
  0.588   0.590   0.592   0.592   0.594   0.598   0.600   0.602
  0.603   0.608   0.610   0.611   0.613   0.615   0.617   0.622
  0.625   0.628   0.629   0.631   0.633   0.637   0.640   0.640
  0.641   0.643   0.644   0.646   0.648   0.650   0.655   0.656
  0.658   0.663   0.664   0.667   0.669   0.671   0.672   0.680
  0.681   0.685   0.686   0.688   0.691   0.692   0.699   0.699
  0.702   0.706   0.709   0.712   0.717   0.719   0.722   0.728
  0.730   0.733   0.736   0.737   0.743   0.745   0.747   0.749
  0.752   0.754   0.758   0.761   0.763   0.767   0.768   0.771
  0.774   0.778   0.780   0.782   0.786   0.789   0.792   0.794
  0.797   0.797   0.803   0.805   0.808   0.811   0.811   0.815
  0.816   0.818   0.819   0.821   0.822   0.823   0.825   0.827
  0.828   0.828   0.831   0.833   0.836   0.838   0.839   0.841
  0.843   0.846   0.847   0.848   0.851   0.852   0.854   0.855
  0.861   0.863   0.864   0.866   0.867   0.869   0.874   0.876
  0.877   0.879   0.880   0.882   0.885   0.891   0.892   0.893
  0.896   0.897   0.897   0.901   0.903   0.904   0.907   0.910
  0.913   0.914   0.914   0.915   0.919   0.920   0.923   0.924
  0.930   0.930   0.931   0.934   0.936   0.939   0.940   0.941
  0.944   0.946   0.948   0.951   0.955   0.956   0.957   0.959
  0.962   0.968   0.970   0.971   0.973   0.977   0.979   0.980
  0.984   0.987   0.991   0.992   0.997   0.999   1.000   1.003
  1.007   1.008   1.010   1.014   1.017   1.027   1.029   1.030
  1.032   1.034   1.036   1.038   1.041   1.048   1.049   1.052
  1.060   1.062   1.064   1.068   1.071   1.077   1.081   1.084
  1.084   1.089   1.091   1.096   1.104   1.107   1.112   1.117
  1.121   1.125   1.128   1.130   1.131   1.134   1.137   1.143
  1.148   1.150   1.154   1.160   1.161   1.167   1.173   1.180
  1.182   1.182   1.189   1.191   1.202   1.212   1.217   1.226
  1.230   1.235   1.238   1.244   1.251   1.254   1.260   1.265
  1.268   1.271   1.277   1.283   1.284   1.293   1.302   1.306
  1.312   1.313   1.322   1.324   1.328   1.329   1.333   1.338
  1.342   1.347   1.348   1.354   1.360   1.367   1.368   1.372
  1.377   1.384   1.391   1.397   1.401   1.403   1.407   1.410
  1.413   1.413   1.418   1.423   1.426   1.432   1.438   1.439
  1.444   1.450   1.454   1.456   1.461   1.467   1.472   1.474
  1.475   1.477   1.482   1.483   1.489   1.494   1.498   1.500
  1.514   1.518   1.531   1.535   1.541   1.550   1.555   1.560
  1.566   1.568   1.583   1.594   1.598   1.600   1.612   1.623
  1.626   1.631   1.637   1.639   1.646   1.653   1.657   1.664
  1.665   1.666   1.677   1.681   1.681   1.684   1.687   1.688
  1.693   1.696   1.699   1.702   1.709   1.711   1.717   1.719
  1.724   1.726   1.730   1.732   1.735   1.740   1.743   1.751
  1.751   1.756   1.758   1.762   1.770   1.775   1.782   1.784
  1.787   1.789   1.793   1.799   1.805   1.811   1.811   1.817
  1.829   1.831   1.833   1.837   1.838   1.843   1.846   1.850
  1.851   1.859   1.865   1.867   1.869   1.872   1.873   1.875
  1.878   1.884   1.886   1.889   1.891   1.893   1.898   1.902
  1.904   1.911   1.912   1.917   1.917   1.920   1.923   1.928
  1.928   1.934   1.939   1.940   1.950   1.951   1.957   1.963
  1.967   1.971   1.977   1.991   1.996   1.997   1.998   2.002
  2.008   2.011   2.017   2.020   2.024   2.025   2.032   2.036
  2.036   2.044   2.045   2.048   2.055   2.066   2.069   2.071
  2.073   2.074   2.081   2.083   2.086   2.087   2.090   2.095
  2.097   2.098   2.101   2.108   2.115   2.116   2.125   2.131
  2.132   2.140   2.140   2.142   2.143   2.149   2.150   2.154
  2.156   2.166   2.168   2.173   2.178   2.184   2.189   2.192
  2.200   2.204   2.207   2.209   2.215   2.218   2.220   2.225
  2.228   2.237   2.240   2.245   2.246   2.252   2.257   2.259
  2.265   2.266   2.271   2.273   2.276   2.277   2.291   2.292
  2.293   2.298   2.299   2.304   2.308   2.311   2.314   2.319
  2.328   2.329   2.333   2.334   2.338   2.344   2.348   2.352
  2.352   2.356   2.358   2.358   2.363   2.365   2.369   2.378
  2.381   2.383   2.390   2.391   2.396   2.399   2.400   2.402
  2.409   2.410   2.411   2.415   2.418   2.419   2.421   2.425
  2.433   2.436   2.440   2.443   2.446   2.449   2.452   2.455
  2.459   2.462   2.464   2.469   2.472   2.474   2.476   2.477
  2.480   2.482   2.485   2.486   2.493   2.496   2.500   2.501
  2.506   2.513   2.514   2.515   2.525   2.529   2.532   2.537
  2.538   2.539   2.548   2.549   2.552   2.558   2.560   2.561
  2.568   2.572   2.578   2.587   2.593   2.604   2.606   2.610
  2.614   2.615   2.618   2.634   2.643   2.645   2.648   2.652
  2.652   2.654   2.655   2.659   2.666   2.668   2.669   2.682
  2.686   2.688   2.691   2.697   2.699   2.703   2.708   2.711
  2.712   2.714   2.715   2.721   2.725   2.726   2.730   2.734
  2.736   2.754   2.758   2.768   2.771   2.774   2.784   2.787
  2.794   2.796   2.797   2.806   2.811   2.828   2.829   2.830
  2.831   2.836   2.851   2.855   2.857   2.861   2.862   2.864
  2.872   2.876   2.881   2.884   2.900   2.905   2.906   2.913
  2.922   2.928   2.929   2.934   2.935   2.936   2.938   2.942
  2.948   2.954   2.970   2.984   2.998   3.003   3.012   3.035
  3.038   3.067   3.075   3.078   3.090   3.093   3.116   3.127
  3.152   3.184   3.184   3.191   3.195   3.203   3.240   3.241
  3.245   3.248   3.252   3.256   3.264   3.271   3.279   3.289
  3.290   3.297   3.297   3.316   3.324   3.326   3.330   3.337
  3.347   3.349   3.352   3.378   3.387   3.400   3.409   3.409
  3.434   3.447   3.456   3.459   3.468   3.473   3.521   3.531
  3.558   3.566   3.573   3.581   3.583   3.585   3.597   3.597
  3.599   3.633   3.728   3.762   3.866   3.897   3.905   3.932
  3.936   3.939   3.949   3.953   3.967   3.984   4.000   4.006
  4.017   4.041   4.066   4.085   4.099   4.111   4.121   4.130
  4.136   4.145   4.149   4.158   4.161   4.181   4.192   4.204
  4.211   4.223   4.240   4.243   4.254   4.260   4.272   4.281
  4.300   4.307   4.317   4.344   4.360   4.374   4.381   4.387
  4.426   4.432   4.445   4.450   4.453   4.467   4.481   4.489
  4.497   4.512   4.536   4.542   4.578   4.594   4.643   4.658
  4.682   4.696   4.722   4.724   4.744   4.758   4.803   4.820
 --------------------------------------------------------------
 
          Ground-State Mulliken Net Atomic Charges

     Atom                 Charge (a.u.)
  ----------------------------------------
      1 C                     0.280864
      2 C                    -0.098699
      3 N                    -0.484681
      4 C                    -0.071316
      5 C                     0.099292
      6 C                     0.027502
      7 C                    -0.022238
      8 C                     0.070684
      9 C                     0.219004
     10 N                    -0.508900
     11 N                    -0.544343
     12 C                     0.202641
     13 C                     0.300809
     14 S                     0.632515
     15 N                    -0.549302
     16 C                    -0.241402
     17 S                     0.323614
     18 C                    -0.095173
     19 C                    -0.220924
     20 S                     0.291288
     21 C                     0.127284
     22 C                     0.049494
     23 C                    -0.313836
     24 C                    -0.057283
     25 N                    -0.418192
     26 S                     0.276647
     27 C                     0.111736
     28 C                    -0.304032
     29 C                    -0.232821
     30 H                     0.101962
     31 H                     0.095113
     32 H                     0.117242
     33 H                     0.111638
     34 H                     0.129757
     35 H                     0.124133
     36 H                     0.111535
     37 H                     0.136817
     38 H                     0.117200
     39 C                    -0.184359
     40 H                     0.087012
     41 H                     0.093391
     42 H                     0.093153
     43 C                    -0.173564
     44 H                     0.104895
     45 C                    -0.175029
     46 H                     0.099304
     47 H                     0.091113
     48 H                     0.093906
     49 C                    -0.188092
     50 H                     0.094465
     51 C                    -0.319355
     52 H                     0.095217
     53 H                     0.099196
     54 H                     0.101651
     55 H                     0.099771
     56 C                     0.282434
     57 C                    -0.128244
     58 N                    -0.489523
     59 C                    -0.098744
     60 C                     0.074737
     61 C                     0.055776
     62 C                     0.054879
     63 C                     0.069044
     64 C                     0.190409
     65 N                    -0.515993
     66 N                    -0.542595
     67 C                     0.228315
     68 C                     0.261293
     69 S                     0.616587
     70 N                    -0.563839
     71 C                    -0.203986
     72 S                     0.363764
     73 C                    -0.107468
     74 C                    -0.220643
     75 S                     0.269869
     76 C                     0.118656
     77 C                     0.068391
     78 C                    -0.300913
     79 C                    -0.064583
     80 N                    -0.427936
     81 S                     0.253920
     82 C                     0.117414
     83 C                    -0.299699
     84 C                    -0.231214
     85 H                     0.104403
     86 H                     0.100434
     87 H                     0.097336
     88 H                     0.115906
     89 H                     0.124556
     90 H                     0.113199
     91 H                     0.109407
     92 H                     0.136015
     93 H                     0.121063
     94 C                    -0.202015
     95 H                     0.129151
     96 H                     0.098933
     97 H                     0.113640
     98 C                    -0.189175
     99 H                     0.092539
    100 C                    -0.170224
    101 H                     0.094951
    102 H                     0.089468
    103 H                     0.085926
    104 C                    -0.188737
    105 H                     0.094141
    106 C                    -0.320763
    107 H                     0.094516
    108 H                     0.105703
    109 H                     0.107973
    110 H                     0.103244
  ----------------------------------------
  Sum of atomic charges =     0.000000

 -----------------------------------------------------------------
                    Cartesian Multipole Moments
 -----------------------------------------------------------------
    Charge (ESU x 10^10)
                 0.0000
    Dipole Moment (Debye)
         X       0.8498      Y      -2.0593      Z      -0.1057
       Tot       2.2303
    Quadrupole Moments (Debye-Ang)
        XX    -408.3454     XY     -15.3986     YY    -419.7817
        XZ      20.8210     YZ      20.7624     ZZ    -444.9341
    Octopole Moments (Debye-Ang^2)
       XXX     -24.5278    XXY    -252.8215    XYY      41.6812
       YYY    -188.2911    XXZ     -10.4857    XYZ      30.9959
       YYZ     -66.0549    XZZ      42.1790    YZZ     -53.2406
       ZZZ     -32.9976
    Hexadecapole Moments (Debye-Ang^3)
      XXXX  -59850.6639   XXXY   -1955.0419   XXYY  -15942.8908
      XYYY   -1029.7576   YYYY  -40113.2924   XXXZ     597.0972
      XXYZ     603.5047   XYYZ     297.0887   YYYZ    1526.7523
      XXZZ  -11706.0846   XYZZ      74.3337   YYZZ   -8489.0782
      XZZZ     266.2054   YZZZ     168.3706   ZZZZ  -10605.7655
 -----------------------------------------------------------------
Archival summary:
1\1\mn426\SP\ProcedureUnspecified\6-31G**\8105042\afmv_a\SatOct616:13:542018SatOct616:13:542018\0\\#,ProcedureUnspecified,6-31G**,\\0,1\S\C,1,1.75379\C,2,1.42239,1,108.848\C,3,1.38825,2,117.506,1,6.05226,0\C,4,1.38614,3,110.548,2,-11.3278,0\C,3,1.41403,2,130.235,1,176.254,0\H,6,1.08384,3,126.905,2,15.9063,0\C,6,1.4021,3,112.782,2,-174.472,0\H,8,1.08252,6,123.69,3,179.803,0\C,2,1.45515,1,124.354,3,-162.986,0\N,10,1.31859,2,117.869,1,-164.397,0\C,11,1.41012,10,106.471,2,179.914,0\H,12,1.08164,11,114.767,10,171.049,0\C,12,1.37401,11,116.83,10,-11.943,0\H,14,1.0817,12,124.468,11,179.028,0\C,5,1.48364,4,125.574,3,-170.373,0\N,16,1.34378,5,113.892,4,-11.018,0\C,17,1.34487,16,117.195,5,-178.25,0\H,18,1.08884,17,111.925,16,176.969,0\C,18,1.3965,17,125.851,16,-0.874189,0\C,20,1.38228,18,113.44,17,-4.49201,0\C,21,1.34919,20,123.428,18,8.97664,0\N,21,1.35438,20,121.036,18,-173.725,0\N,22,1.36326,21,112.687,20,-173.98,0\C,20,1.48569,18,121.242,17,177.469,0\C,25,1.41389,20,118.906,18,99.4566,0\H,26,1.08916,25,121.918,20,7.34377,0\N,26,1.3756,25,118.55,20,-173.619,0\C,28,1.34738,26,119.003,25,6.01467,0\C,29,1.36765,28,126.221,26,-0.804949,0\H,30,1.08644,29,120.996,28,174.104,0\C,30,1.36454,29,114.983,28,-4.58544,0\H,32,1.08584,30,120.27,29,-177.83,0\C,29,1.53913,28,113.836,26,178.791,0\H,34,1.09702,29,108.127,28,-45.3456,0\H,34,1.09759,29,111.109,28,-156.67,0\C,34,1.58433,29,117.057,28,77.3247,0\H,37,1.09699,34,115.767,29,46.3027,0\H,37,1.09744,34,110.784,29,157.774,0\C,37,1.55673,34,116.039,29,-75.9847,0\H,40,1.09655,37,108.255,34,-30.4498,0\H,40,1.09753,37,110.631,34,83.4284,0\C,40,1.59328,37,112.231,34,-153.255,0\H,43,1.09683,40,106.432,37,-43.8883,0\H,43,1.09711,40,107.996,37,79.389,0\C,43,1.54526,40,113.171,37,-158.433,0\H,46,1.09663,43,109.547,40,76.791,0\H,46,1.09776,43,113.64,40,-46.0706,0\C,46,1.57729,43,112.938,40,-171.279,0\H,49,1.09662,46,105.613,43,43.7419,0\H,49,1.09693,46,104.476,43,-70.5959,0\H,49,1.09737,46,115.594,43,167.901,0\S,23,1.62385,21,105.869,20,-175.93,0\S,14,1.75255,12,111.27,11,7.58284,0\S,8,1.7638,6,113.989,3,-1.22495,0\H,2,2.92374,1,73.2268,3,84.274,0\C,56,1.0855,2,140.581,1,-97.3064,0\C,57,1.39051,56,116.156,2,114.188,0\C,58,1.41042,57,113.072,56,177.286,0\H,59,1.08966,58,119.602,57,178.829,0\N,59,1.34832,58,126.323,57,-3.33027,0\C,61,1.32487,59,120.454,58,5.227,0\C,57,1.42047,56,121.609,2,-66.7012,0\H,63,1.08619,57,117.46,56,15.5414,0\C,62,1.44672,61,116.568,59,171.526,0\H,65,1.09691,62,110.258,61,80.4465,0\H,65,1.0975,62,105.323,61,-32.12,0\C,58,1.50214,57,120.832,56,-4.97854,0\C,68,1.35282,58,117.251,57,45.186,0\H,69,1.08829,68,113.942,58,-1.43698,0\N,69,1.33711,68,122.517,58,-175.799,0\C,71,1.3367,69,121.7,68,-10.9037,0\C,72,1.41883,71,119.297,69,5.45499,0\N,73,1.32922,72,128.725,71,170.532,0\C,73,1.4013,72,118.851,71,1.97823,0\N,75,1.35738,73,116.903,72,170.054,0\C,72,1.45494,71,115.002,69,-176.471,0\C,77,1.37009,72,126.103,71,146.133,0\C,78,1.36998,77,116.588,72,-176.493,0\C,79,1.40807,78,110.337,77,-175.878,0\H,80,1.08424,79,122.831,78,-176.468,0\C,80,1.3409,79,111.293,78,-7.20468,0\H,82,1.08275,80,123.322,79,-179.325,0\C,79,1.43465,78,110.967,77,1.92422,0\C,84,1.40815,79,123.669,78,-173.555,0\N,85,1.301,84,115.546,79,148.955,0\C,86,1.37688,85,109.197,84,-170.389,0\H,87,1.08258,86,118.943,85,-172.181,0\C,87,1.3324,86,117.38,85,8.83019,0\H,89,1.08258,87,126.424,86,-171.321,0\C,65,1.58416,62,114.816,61,-147.852,0\H,91,1.09676,65,108.936,62,44.2917,0\H,91,1.09769,65,112.114,62,-72.6931,0\C,91,1.56585,65,111.498,62,161.577,0\H,94,1.09682,91,109.907,65,53.2146,0\H,94,1.09718,91,109.286,65,-58.6472,0\C,94,1.54803,91,119.301,65,-178.861,0\H,97,1.09681,94,107.535,91,-83.4807,0\H,97,1.09764,94,109.536,91,29.5991,0\C,97,1.54848,94,116.445,91,154.006,0\H,100,1.09695,97,108.738,94,38.3326,0\H,100,1.09714,97,112.767,94,-74.3156,0\C,100,1.56465,97,114.517,94,161.746,0\H,103,1.09659,100,107.789,97,-42.3103,0\H,103,1.09681,100,111.457,97,86.0067,0\H,103,1.09683,100,106.862,97,-157.685,0\S,76,1.61338,75,103.701,73,2.20834,0\S,78,1.65441,77,126.954,72,-10.7151,0\S,84,1.71509,79,110.856,78,-5.6736,0\S,89,1.72953,87,109.485,86,-10.0749,0\\\@

 Total job time:  102.40s(wall), 1100.98s(cpu) 
 Sat Oct  6 16:13:54 2018

        *************************************************************
        *                                                           *
        *  Thank you very much for using Q-Chem.  Have a nice day.  *
        *                                                           *
        *************************************************************


