
Running Job 1 of 1 ./10/7.qcin
qchem ./10/7.qcin_32548.0 /tmpu/cab_g/afmv_a/scratch_qchem/qchem32548/ 1
/tmpu/appuserlic/qchem4.4/serial-multicore/exe/qcprog.exe_s ./10/7.qcin_32548.0 /tmpu/cab_g/afmv_a/scratch_qchem/qchem32548/
Check license passed

                  Welcome to Q-Chem
     A Quantum Leap Into The Future Of Chemistry


 Q-Chem 4.4, Q-Chem, Inc., Pleasanton, CA (2016)

 Y. Shao,  Z. Gan,  E. Epifanovsky,  A. T. B. Gilbert,  M. Wormit,  
 J. Kussmann,  A. W. Lange,  A. Behn,  J. Deng,  X. Feng,  D. Ghosh,  
 M. Goldey,  P. R. Horn,  L. D. Jacobson,  I. Kaliman,  F. Rob,  
 R. Z. Khaliullin,  T. Kus,  A. Landau,  J. Liu,  E. I. Proynov,  Y. M. Rhee,  
 R. M. Richard,  M. A. Rohrdanz,  R. P. Steele,  E. J. Sundstrom,  
 H. L. Woodcock III,  P. M. Zimmerman,  D. Zuev,  B. Albrecht,  E. Alguire,  
 B. Austin,  S. A. Baeppler,  G. J. O. Beran,  Y. A. Bernard,  E. Berquist,  
 K. Brandhorst,  K. B. Bravaya,  S. T. Brown,  D. Casanova,  C.-M. Chang,  
 Y. Chen,  S. H. Chien,  K. D. Closser,  M. P. Coons,  D. L. Crittenden,  
 S. Dasgupta,  M. Diedenhofen,  R. A. DiStasio Jr.,  H. Do,  A. D. Dutoi,  
 R. G. Edgar,  P.-T. Fang,  S. Fatehi,  Q. Feng,  L. Fusti-Molnar,  
 A. Ghysels,  A. Golubeva-Zadorozhnaya,  J. Gomes,  A. Gunina,  
 M. W. D. Hanson-Heine,  P. H. P. Harbach,  A. W. Hauser,  J. E. Herr,  
 E. G. Hohenstein,  Z. C. Holden,  K. Hui,  T.-C. Jagau,  H. Ji,  B. Kaduk,  
 K. Khistyaev,  Jaehoon Kim,  Jihan Kim,  R. A. King,  P. Klunzinger,  
 K. Koh,  D. Kosenkov,  T. Kowalczyk,  C. M. Krauter,  A. Kunitsa,  
 K. U. Lao,  A. Laurent,  K. V. Lawler,  J. Lee,  D. Lefrancois,  S. Lehtola,  
 S. V. Levchenko,  C. Y. Lin,  Y.-S. Lin,  F. Liu,  E. Livshits,  
 R. C. Lochan,  A. Luenser,  P. Manohar,  S. F. Manzer,  S.-P. Mao,  Y. Mao,  
 N. Mardirossian,  A. V. Marenich,  L. A. Martinez-Martinez,  S. A. Maurer,  
 N. J. Mayhall,  J.-M. Mewes,  A. F. Morrison,  K. Nanda,  T. S. Nguyen-Beck,  
 C. M. Oana,  R. Olivares-Amaya,  D. P. O'Neill,  J. A. Parkhill,  
 T. M. Perrine,  R. Peverati,  P. A. Pieniazek,  F. Plasser,  A. Prociuk,  
 D. R. Rehn,  E. Rosta,  N. J. Russ,  N. Sergueev,  S. M. Sharada,  
 S. Sharma,  D. W. Small,  A. Sodt,  T. Stauch,  T. Stein,  D. Stuck,  
 Y.-C. Su,  A. J. W. Thom,  T. Tsuchimochi,  L. Vogt,  O. Vydrov,  T. Wang,  
 M. A. Watson,  J. Wenzel,  A. White,  C. F. Williams,  V. Vanovschi,  
 K. Yao,  S. Yeganeh,  S. R. Yost,  Z.-Q. You,  I. Y. Zhang,  X. Zhang,  
 Y. Zhao,  B. R. Brooks,  G. K. L. Chan,  D. M. Chipman,  C. J. Cramer,  
 W. A. Goddard III,  M. S. Gordon,  W. J. Hehre,  A. Klamt,  
 H. F. Schaefer III,  M. W. Schmidt,  C. D. Sherrill,  D. G. Truhlar,  
 A. Warshel,  X. Xu,  A. Aspuru-Guzik,  R. Baer,  A. T. Bell,  N. A. Besley,  
 J.-D. Chai,  A. Dreuw,  B. D. Dunietz,  T. R. Furlani,  S. R. Gwaltney,  
 C.-P. Hsu,  Y. Jung,  J. Kong,  D. S. Lambrecht,  W. Liang,  C. Ochsenfeld,  
 V. A. Rassolov,  L. V. Slipchenko,  J. E. Subotnik,  T. Van Voorhis,  
 J. M. Herbert,  A. I. Krylov,  P. M. W. Gill,  M. Head-Gordon

 Contributors to earlier versions of Q-Chem not listed above: 
 R. D. Adamson,  J. Baker,  E. F. C. Byrd,  A. K. Chakraborty,  C.-L. Cheng,  
 H. Dachsel,  R. J. Doerksen,  G. Hawkins,  A. Heyden,  S. Hirata,  
 G. Kedziora,  F. J. Keil,  C. Kelley,  P. P. Korambath,  W. Kurlancheek,  
 A. M. Lee,  M. S. Lee,  D. Liotard,  I. Lotan,  P. E. Maslen,  N. Nair,  
 D. Neuhauser,  R. Olson,  B. Peters,  J. Ritchie,  N. E. Schultz,  
 N. Shenvi,  A. C. Simmonett,  K. S. Thanthiriwatte,  Q. Wu,  W. Zhang

 Please cite Q-Chem as follows:
 Y. Shao et al., Mol. Phys. 113, 184-215 (2015)
 DOI: 10.1080/00268976.2014.952696

 Q-Chem 4.4.2 for Intel X86 Linux

 Parts of Q-Chem use Armadillo 5.200.1 (Boston Tea Smuggler).
 http://arma.sourceforge.net/

 Q-Chem begins on Sat Oct  6 16:31:17 2018  

Host: 
0

     Scratch files written to /tmpu/cab_g/afmv_a/scratch_qchem/qchem32548//
 Dec716 11556_ 22328  22283 4050   
Processing $rem in /tmpu/appuserlic/qchem4.4/serial-multicore/config/preferences.
 MEM_TOTAL  2000 
FILE_GEOM_ORG=        593

Checking the input file for inconsistencies... 	...done.

--------------------------------------------------------------
User input:
--------------------------------------------------------------
$comment
SP
$end

$rem
MEM_STATIC 5000
MEM_TOTAL 20000
JOBTYPE SP
EXCHANGE B3LYP
BASIS 6-31g(d,p)
$end

$molecule
0 1
C           4.464000     13.625000     -0.728000
C           5.531000     14.471000     -0.757000
N           4.503000     12.507000     -1.471000
C           6.666000     14.200000     -1.511000
C           5.657000     12.203000     -2.164000
C           6.766000     13.002000     -2.324000
C           7.915000     12.550000     -3.140000
C           8.656000     13.553000     -3.763000
C           8.297000     11.199000     -3.407000
N           9.721000     13.297000     -4.599000
N           7.843000     10.111000     -2.802000
C           9.326000     10.971000     -4.282000
C          10.078000     12.015000     -4.868000
S           8.674000      8.875000     -3.353000
N           9.632000      9.607000     -4.466000
C          11.193000     11.807000     -5.809000
S          11.849000     10.268000     -6.390000
C          12.025000     12.787000     -6.294000
C          13.223000     11.013000     -7.208000
S          11.891000     14.536000     -6.131000
C          13.095000     12.369000     -7.080000
C          14.443000     10.355000     -7.501000
C          13.581000     14.616000     -6.811000
C          13.983000     13.435000     -7.324000
N          14.639000      9.251000     -6.806000
S          15.719000     10.837000     -8.560000
C          15.929000      8.800000     -7.010000
C          16.588000      9.469000     -7.999000
C           3.227000     13.790000      0.146000
H           5.518000     15.390000     -0.178000
H           7.478000     14.918000     -1.452000
H           5.522000     11.272000     -2.712000
H           8.302000     14.582000     -3.802000
H          14.055000     15.570000     -7.000000
H          14.937000     13.363000     -7.833000
H          16.360000      7.993000     -6.433000
H          17.530000      9.149000     -8.426000
H           3.283000     13.033000      0.938000
C           1.837000     13.800000     -0.549000
H           3.345000     14.778000      0.610000
H           1.922000     13.202000     -1.465000
H           1.549000     14.802000     -0.891000
C           0.711000     13.211000      0.300000
H           0.973000     12.305000      0.860000
C          -0.580000     12.886000     -0.531000
H           0.486000     13.993000      1.035000
H          -0.438000     12.114000     -1.298000
H          -0.817000     13.716000     -1.208000
C          -1.879000     12.639000      0.223000
H          -1.722000     12.069000      1.148000
C          -2.999000     12.040000     -0.678000
H          -2.207000     13.597000      0.643000
H          -3.485000     12.787000     -1.317000
H          -3.866000     11.739000     -0.077000
H          -2.734000     11.137000     -1.241000
C           0.854000     13.709000    -14.705000
C           1.173000     12.737000    -13.773000
N           1.693000     14.681000    -15.094000
C           2.420000     12.855000    -13.135000
C           2.891000     14.771000    -14.556000
C           3.294000     13.847000    -13.557000
C           4.785000     13.877000    -13.026000
C           5.848000     13.795000    -13.942000
C           5.110000     13.950000    -11.638000
N           7.169000     13.897000    -13.628000
N           4.290000     14.041000    -10.590000
C           6.473000     14.087000    -11.313000
C           7.459000     13.998000    -12.299000
S           5.310000     13.999000     -9.293000
N           6.736000     14.204000    -10.007000
C           8.849000     14.280000    -11.941000
S           9.492000     15.389000    -10.655000
C           9.938000     13.800000    -12.555000
C          11.224000     15.033000    -10.913000
S           9.951000     12.494000    -13.750000
C          11.190000     14.093000    -11.915000
C          12.321000     15.740000    -10.276000
C          11.740000     12.655000    -13.723000
C          12.229000     13.453000    -12.664000
N          13.580000     15.470000    -10.621000
S          12.144000     16.918000     -8.978000
C          14.424000     16.273000     -9.855000
C          13.886000     17.196000     -9.011000
C          -0.469000     13.601000    -15.498000
H           0.492000     11.913000    -13.575000
H           2.835000     12.151000    -12.420000
H           3.500000     15.624000    -14.854000
H           5.712000     14.016000    -14.999000
H          12.346000     12.203000    -14.498000
H          13.281000     13.632000    -12.473000
H          15.486000     16.111000     -9.985000
H          14.305000     17.952000     -8.360000
H          -0.282000     13.573000    -16.578000
C          -1.368000     14.798000    -15.234000
H          -0.974000     12.673000    -15.201000
H          -0.862000     15.745000    -15.461000
H          -1.762000     14.885000    -14.214000
C          -2.540000     14.883000    -16.223000
H          -2.302000     14.725000    -17.282000
C          -3.458000     16.176000    -16.059000
H          -3.208000     14.029000    -16.055000
H          -3.405000     16.732000    -15.114000
H          -4.503000     15.844000    -16.099000
C          -3.063000     17.339000    -17.006000
H          -3.488000     18.262000    -16.594000
C          -3.708000     17.084000    -18.417000
H          -1.975000     17.467000    -17.059000
H          -3.218000     17.774000    -19.115000
H          -4.784000     17.245000    -18.275000
H          -3.541000     16.097000    -18.864000
$end

--------------------------------------------------------------
 ----------------------------------------------------------------
             Standard Nuclear Orientation (Angstroms)
    I     Atom           X                Y                Z
 ----------------------------------------------------------------
    1      C      -1.2844320473     8.0114443043     1.4105062364
    2      C      -2.0156395332     7.3409975997     2.3437172676
    3      N      -1.1501880038     7.4769434113     0.1858506391
    4      C      -2.6459609005     6.1359511868     2.0595692133
    5      C      -1.8332708376     6.3168562367    -0.1174257854
    6      C      -2.5428423254     5.5184416313     0.7502863912
    7      C      -3.1871932561     4.2720992743     0.2793260880
    8      C      -3.3157656167     3.2545594820     1.2234134352
    9      C      -3.6246927743     3.9837820615    -1.0502909081
   10      N      -3.8430028678     2.0153898953     0.9316316391
   11      N      -3.7452373226     4.8442312641    -2.0507813786
   12      C      -4.0967720549     2.7276758796    -1.3255878620
   13      C      -4.2456674023     1.7314607153    -0.3335084691
   14      S      -4.3983374200     4.0686181298    -3.2729689783
   15      N      -4.5141261522     2.5507055448    -2.6606852584
   16      C      -4.7535888159     0.3724180485    -0.5923305460
   17      S      -5.2995575400    -0.3058667916    -2.1344932573
   18      C      -5.0325820680    -0.5738635740     0.3639972514
   19      C      -5.9125826603    -1.7939599673    -1.4121333037
   20      S      -4.6791147754    -0.5441165166     2.0895991712
   21      C      -5.6189842484    -1.7568761511    -0.0764953426
   22      C      -6.9174775551    -2.6144701665    -1.9814857985
   23      C      -5.7509045431    -2.0135174750     2.2200887004
   24      C      -6.0504715819    -2.5375919540     1.0137970567
   25      N      -7.6353810497    -2.0172650068    -2.9132677310
   26      S      -7.3751163498    -4.2280526738    -1.5705122889
   27      C      -8.7059920711    -2.8203691047    -3.2566812555
   28      C      -8.6430058674    -4.0702097007    -2.7145611371
   29      C      -0.6477020097     9.3822319837     1.6023029967
   30      H      -2.1261498148     7.7435266428     3.3465776004
   31      H      -3.2294648697     5.6866944966     2.8570907141
   32      H      -1.6154833155     6.0193851716    -1.1418131929
   33      H      -2.8075706468     3.3023690794     2.1852502795
   34      H      -5.8808236752    -2.5191668283     3.1676923890
   35      H      -6.6142315734    -3.4608971743     0.9500542737
   36      H      -9.5085134033    -2.4764513759    -3.8951318072
   37      H      -9.2834723606    -4.8926243405    -3.0070159735
   38      H      -1.2321162312    10.0994844014     1.0128473265
   39      C       0.8776090473     9.5228618265     1.3398636191
   40      H      -0.7984491297     9.6118068204     2.6652868631
   41      H       1.1556160720     8.7649857066     0.5967479611
   42      H       1.4772112052     9.2826906189     2.2268286935
   43      C       1.2942478578    10.8911681062     0.8015811409
   44      H       0.6248285291    11.3194565855     0.0455872646
   45      C       2.7425058677    10.8990680513     0.1971364969
   46      H       1.2593055600    11.5507274429     1.6768722452
   47      H       2.8654892315    10.2549773523    -0.6828971749
   48      H       3.4355549907    10.3665191327     0.8600637648
   49      C       3.4160062833    12.2429509121    -0.0422419624
   50      H       2.7139053284    13.0005793796    -0.4140313574
   51      C       4.7044673120    12.1299223373    -0.9094759095
   52      H       3.6586780186    12.6723362383     0.9367813623
   53      H       5.5735439757    11.7685651979    -0.3467568230
   54      H       5.0798293083    13.1233859351    -1.1844749124
   55      H       4.5969614436    11.6071029643    -1.8674453201
   56      C       8.7996419590    -1.9177589708    -1.4387144918
   57      C       7.8831122022    -1.1982029000    -2.1852942036
   58      N       8.4650559567    -2.7857516343    -0.4719327464
   59      C       6.5308233798    -1.3250540691    -1.8230778020
   60      C       7.1992268435    -2.9685719054    -0.1604822615
   61      C       6.1869175201    -2.2413382268    -0.8391184015
   62      C       4.6659822360    -2.5776472966    -0.5569941892
   63      C       4.2126489415    -3.9011287943    -0.6935029778
   64      C       3.7078542967    -1.5823417806    -0.1980293136
   65      N       2.9575782038    -4.3390290473    -0.3984067022
   66      N       3.8912394516    -0.2756657968    -0.0032146368
   67      C       2.4182175086    -2.0365431074     0.1376805453
   68      C       2.0638059495    -3.3780898881    -0.0265074018
   69      S       2.3703841924     0.2898927377     0.2993011885
   70      N       1.5617546116    -1.0825137392     0.5181976550
   71      C       0.7614877970    -3.8333434875     0.4598048333
   72      S      -0.2233310831    -3.1966821477     1.8461381669
   73      C       0.0612467763    -4.8746161472    -0.0078817724
   74      C      -1.6228018394    -4.2869612338     1.6319020434
   75      S       0.4098023761    -5.7583697223    -1.5016416635
   76      C      -1.2640435556    -5.0202415162     0.5263015182
   77      C      -2.7393766970    -4.3960283718     2.5540690276
   78      C      -1.0857294853    -6.6903584244    -1.1524246671
   79      C      -1.8837140075    -6.1330848896    -0.1276940148
   80      N      -3.6796608405    -5.3205074352     2.3585947564
   81      S      -3.0246516404    -3.3261386994     3.9243869818
   82      C      -4.6295583232    -5.1976157312     3.3717548630
   83      C      -4.4287962287    -4.2961185310     4.3721079903
   84      C      10.2958195790    -1.8830780540    -1.8274197316
   85      H       8.2073581640    -0.5896211938    -3.0257904042
   86      H       5.6914951081    -0.8665990163    -2.3372888647
   87      H       6.9913715111    -3.6268697776     0.6825681950
   88      H       4.8990165636    -4.7457648921    -0.6848225671
   89      H      -1.2918575979    -7.6172216655    -1.6726176442
   90      H      -2.8355494607    -6.5417024124     0.1920980898
   91      H      -5.4914561313    -5.8480409925     3.3005709611
   92      H      -4.9704981005    -4.0427119290     5.2739074004
   93      H      10.6749607983    -2.8911938278    -2.0326209072
   94      C      11.1433067436    -1.3104101786    -0.7029096114
   95      H      10.4024899791    -1.2725306671    -2.7331080411
   96      H      11.0041410372    -1.8642509507     0.2342495562
   97      H      10.9800643919    -0.2504463076    -0.4726195187
   98      C      12.6458567508    -1.5402827216    -0.9229825304
   99      H      12.9474200381    -2.5441452924    -1.2461056069
  100      C      13.5772904967    -1.0519624072     0.2751174019
  101      H      12.9686575879    -0.9608191939    -1.7969308353
  102      H      13.1603832752    -0.3376776805     0.9968900099
  103      H      14.4192130503    -0.5037831530    -0.1659210536
  104      C      13.9332287947    -2.1781898813     1.2802654530
  105      H      14.2554326773    -1.7011181814     2.2134777821
  106      C      15.1397746094    -3.0065289548     0.7057460223
  107      H      13.0641035159    -2.8067347876     1.5093714340
  108      H      15.2033045951    -3.9238928780     1.3039193862
  109      H      16.0072920218    -2.3385150909     0.7766827318
  110      H      15.0413575880    -3.3713292521    -0.3233807110
 ----------------------------------------------------------------
 Molecular Point Group                 C1    NOp =  1
 Largest Abelian Subgroup              C1    NOp =  1
 Nuclear Repulsion Energy = 11177.8869537104 hartrees
 There are      270 alpha and      270 beta electrons
 Requested basis set is 6-31G(d,p)
 There are 406 shells and 1262 basis functions

 Total QAlloc Memory Limit  20000 MB
 Mega-Array Size      4888 MB
 MEM_STATIC part      5000 MB
 A cutoff of  1.0D-08 yielded  12649 shell pairs
 There are    134156 function pairs
 
 -------------------------------------------------------
 OpenMP Integral Computing Module                       
 Release: version 1.0, May 2013, Q-Chem Inc. Pittsburgh 
 -------------------------------------------------------
 Integral Job Info:
 Integral job number is                      11
 Integral operator is                         1
 short-range coefficients                     0
 long-range coefficients              100000000
 Omega coefficients                           0
 if combine SR and LR in K                    0
 Integral screening is                        0
 Integral computing path is                   2
 max size of driver memory is            800000
 size of driver memory is                593474
 size of scratch memory is             15166112
 max col of scratch BK array               1296
 max len of scratch array in speh3          155
 max len of scratch index in speh4           18
 max int batch size is                      520
 min int batch size is                       52
 fixed nKL is                                52
 max L of basis functions is                  2
 order of int derivative is                   0
 number of shells is                        406
 number of basis is                        1262
 number of cartesian basis is              1262
 number of contracted shell pairs         12649
 number of primitive shell pairs          41462
 maxK2 (contraction) of shell pair           36
 max number of K2 of shell pair               1
 max number of CS2 of shell pair           1306
 max number of PS2 of shell pair           7650
 mem total for path MDJ                  277880
 -------------------------------------------------------
 Smallest overlap matrix eigenvalue = 3.86E-04

 Scale SEOQF with 1.000000e-02/1.000000e-02/1.000000e-02

 Standard Electronic Orientation quadrupole field applied
 Nucleus-field energy     =     0.0000001367 hartrees
 Guess from superposition of atomic densities
 Warning:  Energy on first SCF cycle will be non-variational
 A restricted hybrid HF-DFT SCF calculation will be
 performed using Pulay DIIS extrapolation
 Exchange:     0.2000 Hartree-Fock + 0.0800 Slater + 0.7200 B88
 Correlation:  0.1900 VWN1RPA + 0.8100 LYP
 Using SG-1 standard quadrature grid
 SCF converges when DIIS error is below 1.0E-05
 using 16 threads for integral computing 
 -------------------------------------------------------
 OpenMP BLAS3 based DFT computing Module                
 Release: version 1.0, May 2013, Q-Chem Inc. Pittsburgh 
 -------------------------------------------------------
 ---------------------------------------
  Cycle       Energy         DIIS Error
 ---------------------------------------
    1   -5680.3200730177      2.16E-02
    2   -5662.5372127303      2.09E-03
    3   -5661.2740942830      3.19E-03
    4   -5663.3538303095      8.26E-04
    5   -5663.4702626540      3.61E-04
    6   -5663.4856449031      2.24E-04
    7   -5663.4950284892      6.27E-05
    8   -5663.4957346115      2.37E-05
    9   -5663.4958487321      7.51E-06 Convergence criterion met
 ---------------------------------------
 SCF time:  CPU 907.15 s  wall 81.45 s
 SCF   energy in the final basis set = -5663.4958487321
 Total energy in the final basis set = -5663.4958487321
 
 --------------------------------------------------------------
 
                    Orbital Energies (a.u.)
 --------------------------------------------------------------
 
 Alpha MOs
 -- Occupied --
-88.991 -88.990 -88.931 -88.925 -88.916 -88.915 -88.906 -88.901
-14.392 -14.388 -14.385 -14.379 -14.356 -14.349 -14.347 -14.339
-14.328 -14.323 -10.278 -10.264 -10.264 -10.264 -10.260 -10.256
-10.254 -10.253 -10.244 -10.241 -10.240 -10.239 -10.235 -10.234
-10.233 -10.233 -10.233 -10.229 -10.228 -10.227 -10.227 -10.226
-10.226 -10.225 -10.224 -10.222 -10.219 -10.218 -10.217 -10.216
-10.215 -10.212 -10.212 -10.202 -10.200 -10.197 -10.194 -10.193
-10.187 -10.186 -10.178 -10.178 -10.178 -10.177 -10.175 -10.175
-10.175 -10.173 -10.172 -10.169  -8.047  -8.046  -7.993  -7.986
 -7.975  -7.973  -7.966  -7.960  -6.012  -6.011  -6.006  -6.005
 -6.005  -6.004  -5.957  -5.953  -5.950  -5.950  -5.946  -5.942
 -5.939  -5.938  -5.935  -5.934  -5.931  -5.930  -5.930  -5.927
 -5.924  -5.921  -5.921  -5.916  -1.050  -1.045  -0.974  -0.965
 -0.957  -0.950  -0.947  -0.932  -0.918  -0.910  -0.905  -0.900
 -0.837  -0.834  -0.831  -0.828  -0.813  -0.813  -0.808  -0.805
 -0.803  -0.801  -0.799  -0.795  -0.782  -0.781  -0.768  -0.766
 -0.751  -0.749  -0.740  -0.739  -0.717  -0.712  -0.709  -0.702
 -0.694  -0.689  -0.677  -0.674  -0.658  -0.651  -0.648  -0.643
 -0.640  -0.639  -0.633  -0.622  -0.612  -0.612  -0.599  -0.598
 -0.593  -0.591  -0.584  -0.580  -0.577  -0.575  -0.573  -0.556
 -0.552  -0.544  -0.540  -0.540  -0.523  -0.523  -0.518  -0.516
 -0.508  -0.507  -0.500  -0.499  -0.493  -0.483  -0.479  -0.477
 -0.475  -0.472  -0.468  -0.464  -0.458  -0.457  -0.448  -0.447
 -0.442  -0.439  -0.439  -0.436  -0.435  -0.433  -0.432  -0.430
 -0.426  -0.426  -0.422  -0.419  -0.419  -0.415  -0.414  -0.413
 -0.410  -0.407  -0.405  -0.401  -0.398  -0.395  -0.395  -0.394
 -0.393  -0.391  -0.391  -0.390  -0.387  -0.385  -0.383  -0.383
 -0.379  -0.376  -0.370  -0.369  -0.364  -0.364  -0.356  -0.356
 -0.353  -0.350  -0.349  -0.347  -0.346  -0.346  -0.342  -0.339
 -0.335  -0.332  -0.330  -0.329  -0.327  -0.326  -0.314  -0.314
 -0.313  -0.309  -0.307  -0.305  -0.302  -0.301  -0.301  -0.296
 -0.296  -0.293  -0.291  -0.290  -0.287  -0.286  -0.282  -0.281
 -0.279  -0.273  -0.272  -0.265  -0.256  -0.253  -0.249  -0.246
 -0.243  -0.238  -0.232  -0.231  -0.197  -0.194
 -- Virtual --
 -0.116  -0.110  -0.076  -0.069  -0.039  -0.033  -0.029  -0.023
 -0.023  -0.016  -0.012  -0.008  -0.006  -0.006   0.004   0.007
  0.009   0.014   0.018   0.024   0.028   0.033   0.037   0.044
  0.046   0.055   0.058   0.059   0.066   0.074   0.090   0.091
  0.091   0.094   0.097   0.100   0.106   0.109   0.112   0.112
  0.113   0.116   0.117   0.120   0.122   0.124   0.127   0.129
  0.132   0.133   0.133   0.134   0.136   0.137   0.139   0.142
  0.146   0.149   0.152   0.154   0.158   0.159   0.163   0.165
  0.165   0.172   0.173   0.175   0.178   0.178   0.181   0.183
  0.184   0.187   0.188   0.188   0.192   0.194   0.196   0.197
  0.201   0.203   0.207   0.209   0.211   0.217   0.219   0.222
  0.222   0.225   0.227   0.228   0.229   0.231   0.233   0.236
  0.240   0.246   0.249   0.251   0.252   0.257   0.261   0.263
  0.265   0.267   0.267   0.270   0.271   0.275   0.280   0.283
  0.284   0.291   0.291   0.292   0.298   0.301   0.303   0.304
  0.315   0.315   0.316   0.317   0.319   0.321   0.322   0.324
  0.329   0.331   0.334   0.335   0.336   0.341   0.348   0.351
  0.354   0.357   0.358   0.363   0.364   0.366   0.368   0.369
  0.375   0.379   0.380   0.387   0.390   0.396   0.399   0.401
  0.406   0.411   0.412   0.415   0.421   0.427   0.432   0.442
  0.447   0.450   0.455   0.460   0.463   0.466   0.472   0.474
  0.477   0.479   0.479   0.489   0.494   0.496   0.499   0.499
  0.500   0.502   0.504   0.506   0.513   0.514   0.516   0.517
  0.522   0.524   0.527   0.528   0.530   0.531   0.532   0.533
  0.536   0.539   0.542   0.545   0.548   0.548   0.549   0.552
  0.555   0.556   0.557   0.557   0.559   0.561   0.565   0.566
  0.568   0.574   0.578   0.578   0.579   0.580   0.580   0.584
  0.588   0.590   0.590   0.592   0.593   0.596   0.596   0.598
  0.601   0.602   0.602   0.606   0.608   0.608   0.611   0.613
  0.620   0.621   0.623   0.625   0.628   0.628   0.630   0.631
  0.633   0.635   0.635   0.641   0.643   0.644   0.645   0.648
  0.651   0.655   0.656   0.661   0.662   0.665   0.667   0.671
  0.672   0.676   0.680   0.685   0.687   0.688   0.689   0.692
  0.695   0.701   0.708   0.708   0.713   0.716   0.720   0.724
  0.726   0.730   0.732   0.733   0.736   0.739   0.740   0.750
  0.752   0.754   0.754   0.758   0.758   0.760   0.763   0.767
  0.769   0.776   0.777   0.781   0.783   0.784   0.785   0.789
  0.792   0.794   0.795   0.798   0.800   0.801   0.802   0.803
  0.809   0.810   0.814   0.815   0.816   0.819   0.819   0.820
  0.825   0.827   0.831   0.832   0.834   0.835   0.838   0.838
  0.841   0.841   0.844   0.845   0.847   0.851   0.852   0.855
  0.856   0.857   0.860   0.863   0.864   0.866   0.867   0.870
  0.871   0.873   0.875   0.879   0.881   0.882   0.886   0.887
  0.891   0.892   0.894   0.897   0.899   0.904   0.907   0.908
  0.910   0.914   0.915   0.916   0.919   0.920   0.920   0.925
  0.928   0.928   0.930   0.933   0.935   0.936   0.938   0.939
  0.940   0.945   0.946   0.950   0.950   0.954   0.955   0.958
  0.959   0.963   0.963   0.965   0.968   0.973   0.979   0.981
  0.982   0.987   0.989   0.989   0.991   0.998   1.002   1.003
  1.006   1.007   1.010   1.013   1.017   1.019   1.020   1.021
  1.024   1.026   1.028   1.030   1.031   1.037   1.040   1.047
  1.048   1.054   1.058   1.062   1.065   1.071   1.073   1.076
  1.078   1.080   1.085   1.089   1.091   1.095   1.105   1.109
  1.115   1.119   1.125   1.127   1.130   1.135   1.139   1.143
  1.145   1.146   1.153   1.159   1.160   1.164   1.167   1.172
  1.180   1.181   1.188   1.197   1.202   1.203   1.215   1.219
  1.223   1.228   1.233   1.238   1.244   1.247   1.248   1.258
  1.262   1.267   1.269   1.272   1.274   1.285   1.286   1.292
  1.298   1.298   1.312   1.315   1.317   1.318   1.326   1.329
  1.336   1.336   1.338   1.340   1.348   1.353   1.358   1.359
  1.370   1.374   1.379   1.382   1.383   1.393   1.393   1.395
  1.405   1.411   1.419   1.421   1.422   1.430   1.432   1.436
  1.444   1.446   1.453   1.457   1.460   1.465   1.472   1.476
  1.482   1.486   1.491   1.496   1.499   1.506   1.511   1.519
  1.522   1.524   1.530   1.536   1.546   1.549   1.558   1.559
  1.569   1.572   1.578   1.583   1.584   1.585   1.591   1.596
  1.608   1.613   1.619   1.625   1.630   1.638   1.643   1.651
  1.654   1.658   1.658   1.664   1.669   1.671   1.683   1.688
  1.688   1.692   1.697   1.699   1.703   1.708   1.710   1.716
  1.722   1.722   1.727   1.729   1.735   1.739   1.744   1.748
  1.750   1.752   1.758   1.759   1.761   1.774   1.779   1.787
  1.790   1.791   1.791   1.792   1.798   1.806   1.807   1.813
  1.815   1.819   1.824   1.825   1.826   1.833   1.837   1.844
  1.850   1.852   1.852   1.855   1.857   1.861   1.864   1.868
  1.873   1.876   1.882   1.882   1.887   1.888   1.892   1.895
  1.898   1.902   1.904   1.904   1.915   1.917   1.921   1.921
  1.925   1.925   1.938   1.939   1.944   1.946   1.951   1.954
  1.956   1.959   1.962   1.966   1.977   1.982   1.984   1.988
  2.000   2.001   2.004   2.008   2.011   2.013   2.014   2.016
  2.017   2.032   2.033   2.041   2.053   2.061   2.062   2.072
  2.076   2.077   2.085   2.088   2.091   2.097   2.103   2.105
  2.106   2.108   2.114   2.121   2.121   2.122   2.125   2.128
  2.131   2.134   2.139   2.142   2.147   2.147   2.155   2.158
  2.167   2.168   2.171   2.175   2.181   2.184   2.189   2.193
  2.196   2.201   2.203   2.209   2.212   2.215   2.218   2.220
  2.222   2.229   2.230   2.238   2.238   2.242   2.244   2.251
  2.253   2.256   2.260   2.261   2.269   2.272   2.273   2.281
  2.293   2.295   2.296   2.298   2.299   2.304   2.308   2.310
  2.312   2.313   2.319   2.322   2.329   2.332   2.333   2.337
  2.338   2.345   2.349   2.357   2.360   2.360   2.363   2.364
  2.368   2.368   2.376   2.378   2.384   2.391   2.396   2.398
  2.402   2.402   2.407   2.408   2.411   2.416   2.419   2.420
  2.422   2.426   2.429   2.429   2.431   2.434   2.437   2.440
  2.444   2.448   2.452   2.456   2.457   2.465   2.472   2.475
  2.476   2.479   2.485   2.490   2.490   2.492   2.499   2.506
  2.506   2.513   2.518   2.521   2.524   2.525   2.526   2.533
  2.538   2.541   2.546   2.547   2.551   2.552   2.561   2.564
  2.571   2.574   2.578   2.585   2.600   2.602   2.609   2.610
  2.613   2.616   2.622   2.622   2.631   2.636   2.640   2.647
  2.652   2.655   2.659   2.660   2.664   2.665   2.669   2.670
  2.671   2.677   2.682   2.688   2.692   2.694   2.705   2.708
  2.709   2.712   2.713   2.716   2.727   2.727   2.739   2.742
  2.744   2.745   2.758   2.773   2.776   2.782   2.791   2.792
  2.794   2.802   2.805   2.811   2.813   2.816   2.820   2.821
  2.827   2.830   2.838   2.841   2.845   2.861   2.866   2.870
  2.877   2.878   2.884   2.888   2.893   2.910   2.912   2.915
  2.918   2.922   2.929   2.930   2.931   2.942   2.942   2.946
  2.949   2.953   2.961   2.974   2.983   2.986   2.992   3.016
  3.048   3.051   3.052   3.060   3.066   3.079   3.097   3.101
  3.166   3.177   3.183   3.198   3.208   3.220   3.224   3.239
  3.246   3.249   3.255   3.257   3.261   3.270   3.277   3.283
  3.294   3.302   3.308   3.312   3.317   3.322   3.324   3.331
  3.338   3.350   3.356   3.375   3.388   3.401   3.407   3.428
  3.437   3.444   3.458   3.477   3.484   3.500   3.514   3.518
  3.534   3.555   3.557   3.568   3.576   3.597   3.599   3.599
  3.606   3.638   3.738   3.758   3.843   3.847   3.907   3.929
  3.945   3.947   3.952   3.959   3.966   3.968   3.974   3.983
  4.024   4.062   4.073   4.075   4.083   4.089   4.107   4.114
  4.121   4.124   4.136   4.160   4.169   4.171   4.176   4.185
  4.192   4.219   4.235   4.241   4.256   4.258   4.261   4.262
  4.275   4.279   4.309   4.325   4.360   4.379   4.380   4.386
  4.401   4.426   4.432   4.434   4.452   4.455   4.478   4.491
  4.504   4.521   4.529   4.533   4.578   4.610   4.649   4.676
  4.690   4.691   4.705   4.725   4.748   4.749   4.770   4.815
 --------------------------------------------------------------
 
          Ground-State Mulliken Net Atomic Charges

     Atom                 Charge (a.u.)
  ----------------------------------------
      1 C                     0.275824
      2 C                    -0.114029
      3 N                    -0.494593
      4 C                    -0.089486
      5 C                     0.051244
      6 C                     0.058801
      7 C                     0.048678
      8 C                     0.047225
      9 C                     0.256965
     10 N                    -0.543091
     11 N                    -0.540742
     12 C                     0.152724
     13 C                     0.329916
     14 S                     0.617464
     15 N                    -0.545590
     16 C                    -0.226568
     17 S                     0.354981
     18 C                    -0.114809
     19 C                    -0.227978
     20 S                     0.267090
     21 C                     0.145112
     22 C                     0.057058
     23 C                    -0.300436
     24 C                    -0.063196
     25 N                    -0.419938
     26 S                     0.284758
     27 C                     0.119493
     28 C                    -0.304841
     29 C                    -0.218269
     30 H                     0.084302
     31 H                     0.097294
     32 H                     0.106917
     33 H                     0.122251
     34 H                     0.112718
     35 H                     0.105462
     36 H                     0.117292
     37 H                     0.131451
     38 H                     0.123698
     39 C                    -0.183158
     40 H                     0.090251
     41 H                     0.121070
     42 H                     0.094713
     43 C                    -0.180165
     44 H                     0.098757
     45 C                    -0.175142
     46 H                     0.090203
     47 H                     0.093736
     48 H                     0.086623
     49 C                    -0.177430
     50 H                     0.090674
     51 C                    -0.329290
     52 H                     0.092788
     53 H                     0.105808
     54 H                     0.098233
     55 H                     0.107751
     56 C                     0.275767
     57 C                    -0.126214
     58 N                    -0.469886
     59 C                    -0.046993
     60 C                     0.080169
     61 C                     0.021020
     62 C                    -0.015303
     63 C                     0.046059
     64 C                     0.260169
     65 N                    -0.466983
     66 N                    -0.555016
     67 C                     0.188429
     68 C                     0.243953
     69 S                     0.605439
     70 N                    -0.520650
     71 C                    -0.181461
     72 S                     0.291834
     73 C                    -0.110370
     74 C                    -0.218876
     75 S                     0.266145
     76 C                     0.134899
     77 C                     0.077776
     78 C                    -0.300993
     79 C                    -0.061435
     80 N                    -0.440683
     81 S                     0.271067
     82 C                     0.125257
     83 C                    -0.317469
     84 C                    -0.213522
     85 H                     0.097404
     86 H                     0.104610
     87 H                     0.108818
     88 H                     0.119343
     89 H                     0.127016
     90 H                     0.126083
     91 H                     0.107812
     92 H                     0.144650
     93 H                     0.116462
     94 C                    -0.167727
     95 H                     0.090947
     96 H                     0.118661
     97 H                     0.095823
     98 C                    -0.186454
     99 H                     0.092322
    100 C                    -0.181310
    101 H                     0.080761
    102 H                     0.085309
    103 H                     0.088140
    104 C                    -0.183373
    105 H                     0.091818
    106 C                    -0.313230
    107 H                     0.100733
    108 H                     0.095875
    109 H                     0.104538
    110 H                     0.102263
  ----------------------------------------
  Sum of atomic charges =     0.000000

 -----------------------------------------------------------------
                    Cartesian Multipole Moments
 -----------------------------------------------------------------
    Charge (ESU x 10^10)
                 0.0000
    Dipole Moment (Debye)
         X      -2.7412      Y      -0.3129      Z       0.8794
       Tot       2.8958
    Quadrupole Moments (Debye-Ang)
        XX    -417.4332     XY      33.9626     YY    -436.6994
        XZ     -15.6274     YZ      12.1950     ZZ    -422.7789
    Octopole Moments (Debye-Ang^2)
       XXX    -383.7132    XXY    -141.9600    XYY    -218.3909
       YYY     -20.6924    XXZ    -108.3269    XYZ       3.2855
       YYZ      54.1839    XZZ     -85.7844    YZZ       9.3647
       ZZZ      45.6920
    Hexadecapole Moments (Debye-Ang^3)
      XXXX  -88224.8896   XXXY    3437.4108   XXYY  -24398.1010
      XYYY    1153.8937   YYYY  -62223.0587   XXXZ      66.3752
      XXYZ     232.7132   XYYZ     109.7894   YYYZ    1317.5801
      XXZZ  -15370.7890   XYZZ     292.3094   YYZZ  -11384.4883
      XZZZ    -301.1682   YZZZ    -191.5459   ZZZZ   -8333.6924
 -----------------------------------------------------------------
Archival summary:
1\1\mn426\SP\ProcedureUnspecified\6-31G**\8105042\afmv_a\SatOct616:32:432018SatOct616:32:432018\0\\#,ProcedureUnspecified,6-31G**,\\0,1\S\C,1,1.78693\C,2,1.37432,1,102.565\C,3,1.43182,2,132.003,1,-174.807,0\H,4,1.08408,3,122.562,2,-2.82426,0\C,4,1.4133,3,113.159,2,172.837,0\H,6,1.08267,4,125.341,3,-170.516,0\C,3,1.4363,2,119.076,1,-7.55654,0\C,8,1.33915,3,115.559,2,12.7563,0\C,2,1.45225,1,124.879,3,-173.694,0\N,10,1.33304,2,120.086,1,174.421,0\C,11,1.39424,10,108.233,2,179.444,0\H,12,1.08212,11,116.223,10,-176.088,0\C,12,1.36151,11,119.46,10,4.13995,0\H,14,1.08208,12,133.913,11,176.709,0\C,9,1.4628,8,126.258,3,172.677,0\N,16,1.36402,9,117.049,8,37.5559,0\C,17,1.36163,16,115.88,9,172.401,0\H,18,1.08839,17,109.267,16,-163.356,0\C,16,1.39725,9,119.05,8,-153.904,0\N,20,1.33735,16,123.775,9,11.2587,0\C,18,1.40561,17,125.383,16,-4.54542,0\C,20,1.40789,16,120.936,9,-173.881,0\N,23,1.33379,20,114.027,16,-179.158,0\C,22,1.58302,18,119.511,17,-175.472,0\C,25,1.38781,22,120.312,18,-120.748,0\H,26,1.08585,25,115.022,22,-1.38954,0\C,26,1.40569,25,118.729,22,170.564,0\H,28,1.08717,26,122.455,25,-172.543,0\C,28,1.3839,26,116.82,25,5.82675,0\N,30,1.34165,28,124.053,26,-4.96057,0\C,31,1.31634,30,120.011,28,1.79105,0\H,32,1.08963,31,116.77,30,175.441,0\C,30,1.54623,28,119.575,26,-176.842,0\H,34,1.09643,30,111.163,28,121.845,0\H,34,1.09746,30,108.3,28,2.28342,0\C,34,1.5201,30,111.22,28,-119.06,0\H,37,1.09691,34,115.873,30,66.604,0\H,37,1.09744,34,111.771,30,-56.092,0\C,37,1.53588,34,112.522,30,-167.488,0\H,40,1.09685,37,116.626,34,45.2754,0\H,40,1.09716,37,108.84,34,-66.4038,0\C,40,1.5942,37,114.712,34,175.873,0\H,43,1.0972,40,107.414,37,134.579,0\H,43,1.09771,40,118.136,37,18.3585,0\C,43,1.55094,40,113.498,37,-95.072,0\H,46,1.09649,43,107.643,40,160.486,0\H,46,1.09678,43,111.695,40,42.431,0\C,46,1.57225,43,108.776,40,-82.3241,0\H,49,1.0963,46,116.708,43,51.0213,0\H,49,1.097,46,106.605,43,166.425,0\H,49,1.09721,46,105.21,43,-70.6177,0\S,21,1.60789,20,104.364,16,170.064,0\S,10,1.76177,2,124.945,1,-8.81479,0\S,8,1.77026,3,116.416,2,175.565,0\H,14,2.59163,12,91.7144,11,-95.9176,0\C,56,1.0819,14,131.316,12,63.4027,0\C,57,1.3489,56,125.101,14,-80.0669,0\H,58,1.08369,57,119.944,56,-10.8853,0\C,58,1.4087,57,114.129,56,171.593,0\C,60,1.36803,58,132.445,57,166.708,0\C,60,1.39191,58,110.802,57,3.00362,0\C,62,1.37399,60,116.784,58,170.285,0\C,61,1.41676,60,124.075,58,-7.97628,0\N,64,1.31919,61,114.058,60,-138.414,0\C,65,1.38171,64,109.517,61,170.928,0\H,66,1.08164,65,122.466,64,-170.931,0\C,66,1.3638,65,113.459,64,9.08956,0\H,68,1.08263,66,124.157,65,168.38,0\C,63,1.47376,62,125.651,60,-174.358,0\N,70,1.35769,63,117.304,62,-9.72043,0\C,71,1.37792,70,119.925,63,-177.759,0\H,72,1.08889,71,113.898,70,165.931,0\C,72,1.39399,71,123.252,70,-1.16777,0\C,70,1.4138,63,124.253,62,173.275,0\C,75,1.36984,70,122.779,63,-179.806,0\N,76,1.3251,75,114.352,70,170.095,0\N,75,1.40996,70,123.014,63,-4.75896,0\C,74,1.47999,72,116.062,71,177.306,0\C,79,1.37618,74,120.825,72,-150.732,0\H,80,1.08871,79,122.54,74,7.30899,0\N,80,1.37999,79,127.183,74,177.87,0\C,82,1.34294,80,119.046,79,8.39302,0\C,83,1.362,82,118.854,80,-4.56742,0\H,84,1.08626,83,120.316,82,-178.996,0\C,84,1.38931,83,122.032,82,1.22821,0\H,86,1.08552,84,116.91,83,178.375,0\C,83,1.52357,82,115.538,80,172.227,0\H,88,1.09702,83,107.336,82,-69.2623,0\H,88,1.09789,83,104.634,82,176.057,0\C,88,1.5541,83,118.056,82,58.2624,0\H,91,1.09722,88,107.491,83,-28.1416,0\H,91,1.09723,88,112.336,83,86.802,0\C,91,1.52827,88,114.084,83,-147.996,0\H,94,1.09653,91,104.401,88,-76.0529,0\H,94,1.09685,91,115.213,88,41.2387,0\C,94,1.56935,91,113.064,88,165.005,0\H,97,1.09699,94,110.354,91,44.8533,0\H,97,1.09747,94,114.161,91,-63.6333,0\C,97,1.52215,94,118.251,91,164.518,0\H,100,1.09624,97,107.657,94,-70.4207,0\H,100,1.0978,97,112.308,94,38.7056,0\C,100,1.55724,97,112.929,94,167.907,0\H,103,1.0966,100,113.196,97,78.1096,0\H,103,1.09663,100,116.102,97,-52.9484,0\H,103,1.09704,100,110.914,97,-171.69,0\S,77,1.58804,76,107.539,75,1.0671,0\S,68,1.71502,66,112.56,65,-8.49242,0\S,62,1.76168,60,114.134,58,-12.6159,0\S,61,1.76409,60,107.598,58,-167.541,0\\\@

 Total job time:  85.29s(wall), 917.95s(cpu) 
 Sat Oct  6 16:32:43 2018

        *************************************************************
        *                                                           *
        *  Thank you very much for using Q-Chem.  Have a nice day.  *
        *                                                           *
        *************************************************************


