
Running Job 1 of 1 ./10/72.qcin
qchem ./10/72.qcin_32170.0 /tmpu/cab_g/afmv_a/scratch_qchem/qchem32170/ 1
/tmpu/appuserlic/qchem4.4/serial-multicore/exe/qcprog.exe_s ./10/72.qcin_32170.0 /tmpu/cab_g/afmv_a/scratch_qchem/qchem32170/
Check license passed

                  Welcome to Q-Chem
     A Quantum Leap Into The Future Of Chemistry


 Q-Chem 4.4, Q-Chem, Inc., Pleasanton, CA (2016)

 Y. Shao,  Z. Gan,  E. Epifanovsky,  A. T. B. Gilbert,  M. Wormit,  
 J. Kussmann,  A. W. Lange,  A. Behn,  J. Deng,  X. Feng,  D. Ghosh,  
 M. Goldey,  P. R. Horn,  L. D. Jacobson,  I. Kaliman,  F. Rob,  
 R. Z. Khaliullin,  T. Kus,  A. Landau,  J. Liu,  E. I. Proynov,  Y. M. Rhee,  
 R. M. Richard,  M. A. Rohrdanz,  R. P. Steele,  E. J. Sundstrom,  
 H. L. Woodcock III,  P. M. Zimmerman,  D. Zuev,  B. Albrecht,  E. Alguire,  
 B. Austin,  S. A. Baeppler,  G. J. O. Beran,  Y. A. Bernard,  E. Berquist,  
 K. Brandhorst,  K. B. Bravaya,  S. T. Brown,  D. Casanova,  C.-M. Chang,  
 Y. Chen,  S. H. Chien,  K. D. Closser,  M. P. Coons,  D. L. Crittenden,  
 S. Dasgupta,  M. Diedenhofen,  R. A. DiStasio Jr.,  H. Do,  A. D. Dutoi,  
 R. G. Edgar,  P.-T. Fang,  S. Fatehi,  Q. Feng,  L. Fusti-Molnar,  
 A. Ghysels,  A. Golubeva-Zadorozhnaya,  J. Gomes,  A. Gunina,  
 M. W. D. Hanson-Heine,  P. H. P. Harbach,  A. W. Hauser,  J. E. Herr,  
 E. G. Hohenstein,  Z. C. Holden,  K. Hui,  T.-C. Jagau,  H. Ji,  B. Kaduk,  
 K. Khistyaev,  Jaehoon Kim,  Jihan Kim,  R. A. King,  P. Klunzinger,  
 K. Koh,  D. Kosenkov,  T. Kowalczyk,  C. M. Krauter,  A. Kunitsa,  
 K. U. Lao,  A. Laurent,  K. V. Lawler,  J. Lee,  D. Lefrancois,  S. Lehtola,  
 S. V. Levchenko,  C. Y. Lin,  Y.-S. Lin,  F. Liu,  E. Livshits,  
 R. C. Lochan,  A. Luenser,  P. Manohar,  S. F. Manzer,  S.-P. Mao,  Y. Mao,  
 N. Mardirossian,  A. V. Marenich,  L. A. Martinez-Martinez,  S. A. Maurer,  
 N. J. Mayhall,  J.-M. Mewes,  A. F. Morrison,  K. Nanda,  T. S. Nguyen-Beck,  
 C. M. Oana,  R. Olivares-Amaya,  D. P. O'Neill,  J. A. Parkhill,  
 T. M. Perrine,  R. Peverati,  P. A. Pieniazek,  F. Plasser,  A. Prociuk,  
 D. R. Rehn,  E. Rosta,  N. J. Russ,  N. Sergueev,  S. M. Sharada,  
 S. Sharma,  D. W. Small,  A. Sodt,  T. Stauch,  T. Stein,  D. Stuck,  
 Y.-C. Su,  A. J. W. Thom,  T. Tsuchimochi,  L. Vogt,  O. Vydrov,  T. Wang,  
 M. A. Watson,  J. Wenzel,  A. White,  C. F. Williams,  V. Vanovschi,  
 K. Yao,  S. Yeganeh,  S. R. Yost,  Z.-Q. You,  I. Y. Zhang,  X. Zhang,  
 Y. Zhao,  B. R. Brooks,  G. K. L. Chan,  D. M. Chipman,  C. J. Cramer,  
 W. A. Goddard III,  M. S. Gordon,  W. J. Hehre,  A. Klamt,  
 H. F. Schaefer III,  M. W. Schmidt,  C. D. Sherrill,  D. G. Truhlar,  
 A. Warshel,  X. Xu,  A. Aspuru-Guzik,  R. Baer,  A. T. Bell,  N. A. Besley,  
 J.-D. Chai,  A. Dreuw,  B. D. Dunietz,  T. R. Furlani,  S. R. Gwaltney,  
 C.-P. Hsu,  Y. Jung,  J. Kong,  D. S. Lambrecht,  W. Liang,  C. Ochsenfeld,  
 V. A. Rassolov,  L. V. Slipchenko,  J. E. Subotnik,  T. Van Voorhis,  
 J. M. Herbert,  A. I. Krylov,  P. M. W. Gill,  M. Head-Gordon

 Contributors to earlier versions of Q-Chem not listed above: 
 R. D. Adamson,  J. Baker,  E. F. C. Byrd,  A. K. Chakraborty,  C.-L. Cheng,  
 H. Dachsel,  R. J. Doerksen,  G. Hawkins,  A. Heyden,  S. Hirata,  
 G. Kedziora,  F. J. Keil,  C. Kelley,  P. P. Korambath,  W. Kurlancheek,  
 A. M. Lee,  M. S. Lee,  D. Liotard,  I. Lotan,  P. E. Maslen,  N. Nair,  
 D. Neuhauser,  R. Olson,  B. Peters,  J. Ritchie,  N. E. Schultz,  
 N. Shenvi,  A. C. Simmonett,  K. S. Thanthiriwatte,  Q. Wu,  W. Zhang

 Please cite Q-Chem as follows:
 Y. Shao et al., Mol. Phys. 113, 184-215 (2015)
 DOI: 10.1080/00268976.2014.952696

 Q-Chem 4.4.2 for Intel X86 Linux

 Parts of Q-Chem use Armadillo 5.200.1 (Boston Tea Smuggler).
 http://arma.sourceforge.net/

 Q-Chem begins on Sat Oct  6 16:18:38 2018  

Host: 
0

     Scratch files written to /tmpu/cab_g/afmv_a/scratch_qchem/qchem32170//
 Dec716 11556_ 22328  22283 4050   
Processing $rem in /tmpu/appuserlic/qchem4.4/serial-multicore/config/preferences.
 MEM_TOTAL  2000 
FILE_GEOM_ORG=        593

Checking the input file for inconsistencies... 	...done.

--------------------------------------------------------------
User input:
--------------------------------------------------------------
$comment
SP
$end

$rem
MEM_STATIC 5000
MEM_TOTAL 20000
JOBTYPE SP
EXCHANGE B3LYP
BASIS 6-31g(d,p)
$end

$molecule
0 1
C          -9.384000    -14.784000     -6.480000
C          -8.765000    -14.155000     -5.389000
N         -10.680000    -15.144000     -6.307000
C          -9.412000    -13.866000     -4.186000
C         -11.386000    -14.804000     -5.199000
C         -10.773000    -14.186000     -4.054000
C         -11.498000    -13.966000     -2.777000
C         -10.867000    -14.191000     -1.546000
C         -12.914000    -13.660000     -2.630000
N         -11.463000    -14.056000     -0.346000
N         -13.727000    -13.460000     -3.679000
C         -13.477000    -13.464000     -1.402000
C         -12.717000    -13.628000     -0.228000
S         -15.100000    -13.048000     -2.994000
N         -14.748000    -12.943000     -1.411000
C         -13.248000    -13.394000      1.125000
S         -14.826000    -13.764000      1.699000
C         -12.404000    -13.005000      2.129000
C         -14.388000    -13.413000      3.375000
S         -10.782000    -12.473000      2.003000
C         -13.078000    -12.957000      3.351000
C         -15.101000    -13.810000      4.573000
C         -10.948000    -12.227000      3.820000
C         -12.173000    -12.557000      4.363000
N         -14.500000    -13.714000      5.722000
S         -16.634000    -14.579000      4.497000
C         -15.411000    -14.245000      6.706000
C         -16.592000    -14.650000      6.269000
C          -8.641000    -15.172000     -7.747000
H          -7.715000    -13.918000     -5.531000
H          -8.889000    -13.327000     -3.402000
H         -12.347000    -15.309000     -5.116000
H          -9.827000    -14.513000     -1.571000
H         -10.036000    -11.856000      4.268000
H         -12.381000    -12.414000      5.417000
H         -15.130000    -14.233000      7.751000
H         -17.438000    -15.032000      6.825000
H          -7.923000    -15.980000     -7.558000
C          -7.944000    -13.961000     -8.409000
H          -9.432000    -15.534000     -8.415000
H          -7.633000    -14.207000     -9.432000
H          -7.032000    -13.695000     -7.860000
C          -8.835000    -12.708000     -8.379000
H          -9.798000    -12.944000     -8.848000
C          -8.271000    -11.507000     -9.123000
H          -9.064000    -12.413000     -7.347000
H          -9.041000    -10.727000     -9.179000
H          -7.973000    -11.745000    -10.151000
C          -7.040000    -10.792000     -8.571000
H          -6.177000    -11.466000     -8.510000
C          -7.286000    -10.140000     -7.238000
H          -6.735000     -9.998000     -9.264000
H          -6.363000     -9.762000     -6.780000
H          -7.712000    -10.844000     -6.512000
H          -7.949000     -9.278000     -7.385000
C         -18.771000     -8.410000     15.645000
C         -19.152000     -9.430000     16.486000
N         -18.653000     -8.684000     14.322000
C         -19.561000    -10.652000     16.013000
C         -19.028000     -9.909000     13.886000
C         -19.589000    -10.937000     14.637000
C         -19.706000    -12.259000     13.967000
C         -19.329000    -12.460000     12.619000
C         -20.098000    -13.429000     14.613000
N         -19.383000    -13.599000     11.897000
N         -20.466000    -13.560000     15.939000
C         -20.098000    -14.655000     13.953000
C         -19.817000    -14.711000     12.539000
S         -20.967000    -15.096000     16.124000
N         -20.641000    -15.643000     14.645000
C         -20.025000    -15.925000     11.742000
S         -21.184000    -17.151000     12.102000
C         -19.362000    -16.222000     10.563000
C         -20.893000    -18.021000     10.672000
S         -17.959000    -15.587000      9.834000
C         -19.924000    -17.346000      9.921000
C         -21.543000    -19.261000     10.359000
C         -17.988000    -16.933000      8.702000
C         -19.093000    -17.772000      8.818000
N         -21.531000    -19.724000      9.146000
S         -22.476000    -20.166000     11.570000
C         -22.327000    -20.836000      9.063000
C         -22.942000    -21.172000     10.246000
C         -18.331000     -7.092000     16.101000
H         -19.106000     -9.275000     17.560000
H         -19.890000    -11.385000     16.743000
H         -18.931000    -10.036000     12.809000
H         -18.964000    -11.652000     11.987000
H         -17.172000    -16.945000      7.992000
H         -19.275000    -18.670000      8.238000
H         -22.310000    -21.326000      8.099000
H         -23.312000    -22.145000     10.543000
H         -17.489000     -7.207000     16.794000
C         -19.526000     -6.338000     16.787000
H         -18.034000     -6.593000     15.171000
H         -19.151000     -5.309000     16.841000
H         -19.633000     -6.712000     17.813000
C         -20.823000     -6.354000     15.959000
H         -20.522000     -6.168000     14.921000
C         -21.854000     -5.290000     16.407000
H         -21.262000     -7.355000     16.047000
H         -21.372000     -4.311000     16.297000
H         -22.049000     -5.357000     17.484000
C         -23.273000     -5.376000     15.720000
H         -23.151000     -5.450000     14.633000
C         -24.119000     -4.173000     16.245000
H         -23.739000     -6.319000     16.031000
H         -23.624000     -3.215000     16.045000
H         -24.251000     -4.188000     17.334000
H         -25.071000     -4.147000     15.700000
$end

--------------------------------------------------------------
 ----------------------------------------------------------------
             Standard Nuclear Orientation (Angstroms)
    I     Atom           X                Y                Z
 ----------------------------------------------------------------
    1      C     -14.2284728606    -0.6653250021    -0.2257929863
    2      C     -13.5460539385     0.2132404036    -1.0810767069
    3      N     -13.4674930457    -1.3365070001     0.6739677856
    4      C     -12.1697094183     0.4415294690    -1.0272356035
    5      C     -12.1438911503    -1.0846611868     0.8362998802
    6      C     -11.4117410550    -0.2127224218    -0.0425613307
    7      C      -9.9358100277    -0.0637213449     0.0220937669
    8      C      -9.1706947405     0.0135143976    -1.1495632808
    9      C      -9.1132276296    -0.1308299252     1.2217418973
   10      N      -7.8276789351     0.1073691741    -1.1802361924
   11      N      -9.6323700613    -0.2617241035     2.4524847013
   12      C      -7.7591445222     0.0331191496     1.1674405247
   13      C      -7.1036010051     0.1972318852    -0.0679143665
   14      S      -8.3551827764    -0.1608925267     3.3920184328
   15      N      -7.1343690930     0.1946792971     2.3800892710
   16      C      -5.6539550343     0.4188575784    -0.1972766932
   17      S      -4.4065087058    -0.2957689706     0.7459340748
   18      C      -5.1656116915     1.1181024214    -1.2669731123
   19      C      -3.1358383429     0.3279601488    -0.3125458798
   20      S      -6.0355014359     2.0454410071    -2.4128871493
   21      C      -3.7692593397     1.1101041931    -1.2673445678
   22      C      -1.7595002853    -0.1194875075    -0.3941923513
   23      C      -4.3548066594     2.4227178773    -3.0628780965
   24      C      -3.3028366237     1.8368882114    -2.3886847663
   25      N      -1.0389208363     0.2491931273    -1.4117668436
   26      S      -1.1187908943    -1.2710716109     0.7060674039
   27      C       0.2400025165    -0.4010775126    -1.2646575225
   28      C       0.4097114357    -1.1471632358    -0.1856255599
   29      C     -15.7110231860    -0.9696075961    -0.3574692395
   30      H     -14.1663813183     0.7044211265    -1.8245606942
   31      H     -11.7134799336     1.1770156322    -1.6826902251
   32      H     -11.6287720599    -1.8152155784     1.4578926760
   33      H      -9.7060910212    -0.0219751847    -2.0971920648
   34      H      -4.3867482757     3.0659935927    -3.9319379834
   35      H      -2.2741174554     2.0264037254    -2.6723214050
   36      H       1.0202094643    -0.2084067858    -1.9894230776
   37      H       1.2885406268    -1.6810187271     0.1511734415
   38      H     -15.9234462487    -1.5346138000    -1.2738498548
   39      C     -16.5778266594     0.3087479552    -0.2865268491
   40      H     -15.9296013960    -1.5946196577     0.5169062456
   41      H     -17.6330994827     0.0509554349    -0.1325519003
   42      H     -16.5255269599     0.8616592809    -1.2328115882
   43      C     -16.0725934620     1.2768859653     0.7961726519
   44      H     -16.0290963383     0.7473783246     1.7557327900
   45      C     -16.9475704469     2.5020158103     1.0141293882
   46      H     -15.0469570537     1.6043222598     0.5832279851
   47      H     -16.5947792039     3.0399601625     1.9032807885
   48      H     -18.0006436525     2.2479358923     1.1835761910
   49      C     -17.0282732619     3.5703195537    -0.0737603891
   50      H     -17.4172218973     3.1591783250    -1.0131473429
   51      C     -15.7166394779     4.2662519249    -0.3141849125
   52      H     -17.7501713410     4.3417478158     0.2219955910
   53      H     -15.7448408222     4.9201766850    -1.1951866675
   54      H     -14.9040038182     3.5523948425    -0.4991155763
   55      H     -15.4917609279     4.9019037565     0.5516085887
   56      C       9.9174874800     5.2146861061    -1.0365571920
   57      C      10.7965325220     4.2215236426    -1.4022758477
   58      N       8.6913255747     4.8482505339    -0.5875795161
   59      C      10.5304547109     2.8931597962    -1.1810382154
   60      C       8.4411577568     3.5298026335    -0.4130596119
   61      C       9.3277297069     2.4720520058    -0.5881589751
   62      C       8.7445995078     1.1051380605    -0.5459874567
   63      C       7.3747835835     0.8748243764    -0.2810460663
   64      C       9.4522072694    -0.0546597288    -0.8526474374
   65      N       6.7231042210    -0.3052329306    -0.2154735037
   66      N      10.7851668388    -0.1425202497    -1.2081193988
   67      C       8.8253448920    -1.2974837114    -0.8859356945
   68      C       7.4497445898    -1.4209672515    -0.4688402332
   69      S      11.1269774206    -1.7291851761    -1.3090249858
   70      N       9.6531893307    -2.3181311174    -1.0369636980
   71      C       6.8035338411    -2.7214255232    -0.2603001849
   72      S       7.6277100563    -4.1674981189     0.1930921555
   73      C       5.4401818636    -2.9506925694    -0.3410900803
   74      C       6.2007735606    -5.0704112338     0.3803917658
   75      S       4.1518458951    -2.0442144822    -0.9903688415
   76      C       5.1036951884    -4.2429162412     0.1153293533
   77      C       6.1900870606    -6.4636130439     0.7223618158
   78      C       3.1208693437    -3.4579532831    -0.8103384186
   79      C       3.7208625801    -4.5435592276    -0.1779857880
   80      N       5.1037189976    -7.0281415051     1.1547899002
   81      S       7.6634230380    -7.4551352971     0.6754606530
   82      C       5.3698150726    -8.3138628366     1.5461497559
   83      C       6.6882794767    -8.6783677760     1.4068738998
   84      C      10.1575915093     6.6415787084    -1.2486598952
   85      H      11.7209699904     4.4919419807    -1.9041785170
   86      H      11.2987396589     2.1776289492    -1.4570524281
   87      H       7.4463731786     3.3238450918    -0.0213299424
   88      H       6.6779726946     1.6818119753    -0.0602778616
   89      H       2.1059028797    -3.3255300540    -1.1602057727
   90      H       3.2647617532    -5.5120013936    -0.0047235391
   91      H       4.4979850971    -8.8775404135     1.8492422884
   92      H       7.0875821428    -9.6790692550     1.3020314906
   93      H      10.3544564453     6.8253275008    -2.3116361782
   94      C      11.3636272141     7.1176182158    -0.3620927709
   95      H       9.2202453537     7.1038574358    -0.9173133049
   96      H      11.2714886369     8.2091592492    -0.4113944432
   97      H      12.2985593542     6.8353693013    -0.8623311579
   98      C      11.2623566007     6.6738333977     1.1078896434
   99      H      10.2160186568     6.8260520005     1.3988319127
  100      C      12.1934345300     7.4662957422     2.0570252091
  101      H      11.5107571484     5.6066586222     1.1514920100
  102      H      11.9041923937     8.5215349106     1.9816973650
  103      H      13.2276465365     7.4602617215     1.6925912423
  104      C      12.2715565682     6.9374339215     3.5426658527
  105      H      11.2580982145     6.7879008145     3.9331412234
  106      C      13.1865502880     7.9200840395     4.3399959213
  107      H      12.7305292312     5.9414671895     3.5198543745
  108      H      12.8114076441     8.9494510665     4.2903922892
  109      H      14.2030188943     7.9818378444     3.9318929441
  110      H      13.1686716063     7.6369379716     5.3999551926
 ----------------------------------------------------------------
 Molecular Point Group                 C1    NOp =  1
 Largest Abelian Subgroup              C1    NOp =  1
 Nuclear Repulsion Energy = 10182.1062694012 hartrees
 There are      270 alpha and      270 beta electrons
 Requested basis set is 6-31G(d,p)
 There are 406 shells and 1262 basis functions

 Total QAlloc Memory Limit  20000 MB
 Mega-Array Size      4888 MB
 MEM_STATIC part      5000 MB
 A cutoff of  1.0D-08 yielded  12765 shell pairs
 There are    132204 function pairs
 
 -------------------------------------------------------
 OpenMP Integral Computing Module                       
 Release: version 1.0, May 2013, Q-Chem Inc. Pittsburgh 
 -------------------------------------------------------
 Integral Job Info:
 Integral job number is                      11
 Integral operator is                         1
 short-range coefficients                     0
 long-range coefficients              100000000
 Omega coefficients                           0
 if combine SR and LR in K                    0
 Integral screening is                        0
 Integral computing path is                   2
 max size of driver memory is            800000
 size of driver memory is                593474
 size of scratch memory is             15166112
 max col of scratch BK array               1296
 max len of scratch array in speh3          155
 max len of scratch index in speh4           18
 max int batch size is                      520
 min int batch size is                       52
 fixed nKL is                                52
 max L of basis functions is                  2
 order of int derivative is                   0
 number of shells is                        406
 number of basis is                        1262
 number of cartesian basis is              1262
 number of contracted shell pairs         12765
 number of primitive shell pairs          41859
 maxK2 (contraction) of shell pair           36
 max number of K2 of shell pair               1
 max number of CS2 of shell pair           1264
 max number of PS2 of shell pair           7584
 mem total for path MDJ                  282040
 -------------------------------------------------------
 Smallest overlap matrix eigenvalue = 3.91E-04

 Scale SEOQF with 1.000000e-03/1.000000e-02/1.000000e-02

 Standard Electronic Orientation quadrupole field applied
 Nucleus-field energy     =     0.0000000569 hartrees
 Guess from superposition of atomic densities
 Warning:  Energy on first SCF cycle will be non-variational
 A restricted hybrid HF-DFT SCF calculation will be
 performed using Pulay DIIS extrapolation
 Exchange:     0.2000 Hartree-Fock + 0.0800 Slater + 0.7200 B88
 Correlation:  0.1900 VWN1RPA + 0.8100 LYP
 Using SG-1 standard quadrature grid
 SCF converges when DIIS error is below 1.0E-05
 using 16 threads for integral computing 
 -------------------------------------------------------
 OpenMP BLAS3 based DFT computing Module                
 Release: version 1.0, May 2013, Q-Chem Inc. Pittsburgh 
 -------------------------------------------------------
 ---------------------------------------
  Cycle       Energy         DIIS Error
 ---------------------------------------
    1   -5680.7386028954      2.17E-02
    2   -5662.5140023574      2.17E-03
    3   -5660.9315861083      3.44E-03
    4   -5663.3849582291      8.45E-04
    5   -5663.5184951677      3.15E-04
    6   -5663.5286500736      2.12E-04
    7   -5663.5367112253      7.59E-05
    8   -5663.5377787510      2.28E-05
    9   -5663.5378812660      6.37E-06 Convergence criterion met
 ---------------------------------------
 SCF time:  CPU 921.62 s  wall 82.24 s
 SCF   energy in the final basis set = -5663.5378812660
 Total energy in the final basis set = -5663.5378812660
 
 --------------------------------------------------------------
 
                    Orbital Energies (a.u.)
 --------------------------------------------------------------
 
 Alpha MOs
 -- Occupied --
-88.994 -88.988 -88.928 -88.928 -88.923 -88.917 -88.915 -88.905
-14.390 -14.385 -14.385 -14.381 -14.354 -14.346 -14.345 -14.338
-14.328 -14.325 -10.271 -10.265 -10.265 -10.259 -10.256 -10.256
-10.255 -10.250 -10.241 -10.240 -10.240 -10.237 -10.234 -10.234
-10.231 -10.231 -10.230 -10.230 -10.230 -10.229 -10.228 -10.227
-10.224 -10.223 -10.222 -10.220 -10.220 -10.220 -10.219 -10.213
-10.213 -10.213 -10.206 -10.203 -10.203 -10.199 -10.193 -10.191
-10.189 -10.187 -10.185 -10.183 -10.182 -10.177 -10.177 -10.176
-10.175 -10.174 -10.173 -10.169  -8.049  -8.044  -7.990  -7.989
 -7.983  -7.979  -7.976  -7.965  -6.014  -6.009  -6.009  -6.007
 -6.004  -6.002  -5.953  -5.953  -5.950  -5.949  -5.947  -5.947
 -5.946  -5.943  -5.943  -5.941  -5.940  -5.939  -5.937  -5.936
 -5.933  -5.929  -5.926  -5.921  -1.054  -1.045  -0.980  -0.965
 -0.962  -0.960  -0.937  -0.932  -0.923  -0.916  -0.911  -0.904
 -0.858  -0.841  -0.840  -0.833  -0.814  -0.813  -0.813  -0.808
 -0.806  -0.803  -0.799  -0.795  -0.787  -0.783  -0.770  -0.768
 -0.752  -0.751  -0.743  -0.742  -0.731  -0.718  -0.715  -0.712
 -0.697  -0.697  -0.677  -0.673  -0.656  -0.654  -0.651  -0.645
 -0.640  -0.634  -0.626  -0.622  -0.618  -0.614  -0.601  -0.600
 -0.596  -0.589  -0.585  -0.584  -0.580  -0.577  -0.570  -0.556
 -0.550  -0.550  -0.542  -0.541  -0.529  -0.524  -0.518  -0.509
 -0.508  -0.504  -0.504  -0.501  -0.489  -0.489  -0.479  -0.479
 -0.477  -0.471  -0.468  -0.467  -0.464  -0.461  -0.457  -0.451
 -0.443  -0.442  -0.441  -0.439  -0.436  -0.434  -0.433  -0.430
 -0.429  -0.428  -0.426  -0.424  -0.418  -0.417  -0.413  -0.413
 -0.411  -0.410  -0.409  -0.405  -0.402  -0.399  -0.398  -0.396
 -0.395  -0.394  -0.390  -0.388  -0.387  -0.386  -0.386  -0.385
 -0.379  -0.378  -0.375  -0.372  -0.370  -0.369  -0.360  -0.358
 -0.355  -0.355  -0.353  -0.350  -0.350  -0.346  -0.346  -0.343
 -0.342  -0.340  -0.338  -0.337  -0.333  -0.331  -0.324  -0.320
 -0.318  -0.316  -0.316  -0.311  -0.308  -0.305  -0.304  -0.303
 -0.301  -0.297  -0.294  -0.291  -0.289  -0.284  -0.284  -0.281
 -0.278  -0.272  -0.272  -0.269  -0.257  -0.254  -0.249  -0.248
 -0.245  -0.238  -0.232  -0.231  -0.196  -0.194
 -- Virtual --
 -0.114  -0.107  -0.074  -0.070  -0.041  -0.040  -0.027  -0.025
 -0.018  -0.016  -0.013  -0.010  -0.008  -0.004   0.003   0.005
  0.007   0.020   0.020   0.021   0.033   0.035   0.040   0.042
  0.045   0.054   0.065   0.067   0.074   0.080   0.085   0.089
  0.095   0.099   0.100   0.102   0.104   0.109   0.110   0.111
  0.113   0.116   0.119   0.120   0.122   0.123   0.124   0.129
  0.129   0.135   0.136   0.137   0.139   0.145   0.146   0.146
  0.151   0.153   0.155   0.156   0.161   0.162   0.163   0.166
  0.169   0.172   0.174   0.177   0.179   0.182   0.182   0.185
  0.186   0.187   0.190   0.192   0.193   0.197   0.199   0.200
  0.200   0.202   0.211   0.213   0.214   0.215   0.220   0.223
  0.223   0.225   0.229   0.231   0.233   0.236   0.238   0.239
  0.239   0.241   0.242   0.246   0.247   0.253   0.253   0.260
  0.261   0.264   0.264   0.266   0.268   0.269   0.271   0.274
  0.283   0.286   0.289   0.292   0.294   0.300   0.304   0.305
  0.308   0.313   0.314   0.316   0.320   0.321   0.322   0.326
  0.328   0.329   0.331   0.335   0.338   0.340   0.345   0.348
  0.349   0.356   0.362   0.364   0.366   0.368   0.372   0.374
  0.376   0.379   0.382   0.385   0.387   0.399   0.399   0.400
  0.409   0.411   0.412   0.420   0.422   0.425   0.427   0.441
  0.442   0.454   0.456   0.457   0.462   0.463   0.468   0.476
  0.478   0.483   0.487   0.488   0.494   0.498   0.499   0.503
  0.503   0.507   0.510   0.512   0.514   0.515   0.516   0.522
  0.522   0.524   0.524   0.526   0.527   0.529   0.531   0.533
  0.534   0.537   0.538   0.542   0.542   0.545   0.546   0.548
  0.549   0.553   0.554   0.558   0.562   0.563   0.563   0.566
  0.567   0.569   0.572   0.574   0.576   0.577   0.581   0.582
  0.585   0.586   0.586   0.587   0.589   0.595   0.596   0.597
  0.602   0.603   0.605   0.608   0.608   0.611   0.612   0.613
  0.615   0.616   0.620   0.623   0.626   0.627   0.629   0.633
  0.635   0.639   0.640   0.642   0.644   0.645   0.647   0.650
  0.653   0.656   0.657   0.659   0.664   0.666   0.669   0.670
  0.672   0.677   0.681   0.682   0.686   0.688   0.690   0.693
  0.698   0.700   0.702   0.706   0.707   0.714   0.715   0.719
  0.719   0.722   0.725   0.727   0.735   0.736   0.741   0.746
  0.750   0.753   0.756   0.759   0.766   0.766   0.768   0.771
  0.774   0.779   0.780   0.781   0.786   0.788   0.790   0.792
  0.794   0.794   0.797   0.800   0.804   0.806   0.809   0.811
  0.812   0.813   0.815   0.816   0.819   0.821   0.822   0.824
  0.825   0.828   0.831   0.834   0.834   0.837   0.838   0.842
  0.843   0.845   0.847   0.850   0.851   0.853   0.853   0.857
  0.858   0.859   0.863   0.865   0.866   0.869   0.873   0.875
  0.877   0.880   0.882   0.884   0.885   0.885   0.889   0.889
  0.895   0.897   0.900   0.902   0.904   0.906   0.909   0.910
  0.911   0.917   0.919   0.920   0.921   0.926   0.928   0.931
  0.933   0.935   0.937   0.939   0.941   0.942   0.946   0.946
  0.947   0.950   0.950   0.954   0.956   0.959   0.959   0.961
  0.967   0.972   0.976   0.977   0.979   0.981   0.984   0.989
  0.989   0.991   0.992   1.002   1.002   1.004   1.007   1.007
  1.010   1.014   1.019   1.021   1.024   1.027   1.028   1.033
  1.037   1.038   1.043   1.044   1.046   1.049   1.051   1.052
  1.055   1.059   1.060   1.062   1.069   1.072   1.077   1.080
  1.083   1.085   1.089   1.091   1.095   1.098   1.102   1.105
  1.112   1.121   1.122   1.127   1.128   1.131   1.144   1.147
  1.150   1.152   1.157   1.162   1.164   1.179   1.183   1.186
  1.188   1.192   1.193   1.199   1.199   1.204   1.209   1.232
  1.234   1.242   1.244   1.248   1.253   1.261   1.264   1.269
  1.273   1.281   1.287   1.291   1.296   1.297   1.302   1.305
  1.313   1.315   1.317   1.318   1.323   1.325   1.327   1.333
  1.338   1.345   1.350   1.353   1.360   1.361   1.363   1.364
  1.367   1.379   1.381   1.386   1.391   1.393   1.401   1.405
  1.407   1.417   1.419   1.427   1.431   1.431   1.441   1.442
  1.447   1.452   1.457   1.459   1.462   1.469   1.471   1.473
  1.483   1.486   1.490   1.501   1.502   1.503   1.515   1.524
  1.526   1.532   1.536   1.543   1.553   1.561   1.561   1.569
  1.573   1.579   1.586   1.587   1.594   1.600   1.602   1.606
  1.608   1.623   1.626   1.629   1.647   1.649   1.652   1.654
  1.657   1.660   1.666   1.671   1.671   1.679   1.681   1.689
  1.690   1.692   1.695   1.696   1.703   1.704   1.716   1.718
  1.721   1.721   1.726   1.733   1.741   1.741   1.742   1.746
  1.751   1.761   1.763   1.767   1.774   1.777   1.777   1.781
  1.783   1.791   1.795   1.798   1.801   1.805   1.808   1.819
  1.822   1.827   1.832   1.833   1.840   1.840   1.847   1.849
  1.853   1.855   1.856   1.858   1.859   1.864   1.865   1.872
  1.879   1.883   1.890   1.892   1.896   1.902   1.903   1.906
  1.913   1.916   1.920   1.922   1.924   1.928   1.930   1.933
  1.935   1.936   1.939   1.942   1.955   1.958   1.961   1.966
  1.968   1.974   1.978   1.981   1.983   1.986   1.991   1.995
  1.995   2.002   2.009   2.012   2.014   2.018   2.020   2.023
  2.029   2.038   2.040   2.045   2.056   2.061   2.066   2.068
  2.076   2.081   2.084   2.087   2.091   2.092   2.095   2.105
  2.107   2.107   2.112   2.117   2.121   2.122   2.124   2.131
  2.135   2.137   2.140   2.140   2.149   2.154   2.154   2.161
  2.162   2.173   2.173   2.174   2.179   2.183   2.187   2.192
  2.193   2.200   2.202   2.203   2.204   2.212   2.212   2.222
  2.224   2.225   2.227   2.230   2.242   2.242   2.247   2.250
  2.251   2.259   2.260   2.266   2.270   2.273   2.273   2.282
  2.285   2.285   2.292   2.295   2.296   2.299   2.303   2.305
  2.305   2.309   2.323   2.324   2.326   2.327   2.333   2.338
  2.341   2.344   2.352   2.353   2.359   2.361   2.367   2.369
  2.374   2.379   2.382   2.388   2.389   2.390   2.392   2.400
  2.404   2.407   2.412   2.414   2.420   2.421   2.426   2.430
  2.432   2.435   2.436   2.438   2.439   2.442   2.448   2.450
  2.454   2.455   2.458   2.459   2.464   2.467   2.467   2.474
  2.477   2.478   2.483   2.484   2.488   2.490   2.492   2.494
  2.498   2.506   2.515   2.515   2.524   2.527   2.530   2.537
  2.539   2.543   2.547   2.549   2.554   2.559   2.563   2.566
  2.568   2.571   2.578   2.590   2.594   2.601   2.608   2.610
  2.613   2.618   2.619   2.630   2.634   2.640   2.642   2.648
  2.658   2.659   2.663   2.665   2.668   2.670   2.672   2.676
  2.680   2.682   2.683   2.688   2.691   2.697   2.697   2.701
  2.706   2.710   2.711   2.712   2.727   2.734   2.741   2.742
  2.744   2.757   2.760   2.771   2.777   2.779   2.786   2.793
  2.801   2.809   2.814   2.817   2.824   2.831   2.835   2.836
  2.837   2.844   2.852   2.858   2.859   2.860   2.868   2.873
  2.875   2.883   2.889   2.896   2.897   2.904   2.908   2.913
  2.917   2.918   2.928   2.931   2.932   2.934   2.943   2.945
  2.955   2.959   2.980   2.984   2.988   2.995   3.023   3.024
  3.037   3.053   3.055   3.083   3.088   3.099   3.104   3.119
  3.154   3.185   3.187   3.197   3.198   3.209   3.236   3.241
  3.242   3.247   3.255   3.263   3.272   3.273   3.278   3.279
  3.289   3.298   3.302   3.309   3.313   3.321   3.332   3.334
  3.347   3.351   3.374   3.384   3.397   3.407   3.425   3.428
  3.442   3.447   3.456   3.465   3.480   3.486   3.520   3.528
  3.546   3.560   3.562   3.575   3.581   3.590   3.596   3.605
  3.636   3.648   3.730   3.764   3.843   3.857   3.902   3.917
  3.931   3.952   3.954   3.956   3.963   3.965   3.974   3.996
  4.066   4.073   4.078   4.082   4.085   4.093   4.110   4.113
  4.131   4.138   4.148   4.154   4.157   4.171   4.197   4.203
  4.214   4.222   4.231   4.240   4.254   4.261   4.268   4.271
  4.289   4.300   4.353   4.353   4.379   4.383   4.391   4.407
  4.421   4.440   4.449   4.472   4.475   4.482   4.488   4.507
  4.511   4.526   4.544   4.549   4.581   4.602   4.635   4.663
  4.689   4.690   4.703   4.724   4.745   4.756   4.797   4.838
 --------------------------------------------------------------
 
          Ground-State Mulliken Net Atomic Charges

     Atom                 Charge (a.u.)
  ----------------------------------------
      1 C                     0.278150
      2 C                    -0.119311
      3 N                    -0.487980
      4 C                    -0.077892
      5 C                     0.090234
      6 C                     0.022382
      7 C                     0.053156
      8 C                     0.049798
      9 C                     0.200804
     10 N                    -0.514763
     11 N                    -0.517809
     12 C                     0.170036
     13 C                     0.270149
     14 S                     0.606572
     15 N                    -0.530169
     16 C                    -0.197888
     17 S                     0.315321
     18 C                    -0.079032
     19 C                    -0.241059
     20 S                     0.256088
     21 C                     0.139391
     22 C                     0.105887
     23 C                    -0.301805
     24 C                    -0.043870
     25 N                    -0.462540
     26 S                     0.247978
     27 C                     0.111486
     28 C                    -0.302428
     29 C                    -0.230902
     30 H                     0.083152
     31 H                     0.106129
     32 H                     0.115138
     33 H                     0.109968
     34 H                     0.121279
     35 H                     0.131424
     36 H                     0.115441
     37 H                     0.140199
     38 H                     0.115492
     39 C                    -0.186826
     40 H                     0.125438
     41 H                     0.099969
     42 H                     0.095412
     43 C                    -0.175722
     44 H                     0.100688
     45 C                    -0.175142
     46 H                     0.105271
     47 H                     0.086453
     48 H                     0.085054
     49 C                    -0.176718
     50 H                     0.086916
     51 C                    -0.313398
     52 H                     0.091420
     53 H                     0.095779
     54 H                     0.100056
     55 H                     0.102309
     56 C                     0.293732
     57 C                    -0.104436
     58 N                    -0.505636
     59 C                    -0.083987
     60 C                     0.060924
     61 C                     0.061512
     62 C                     0.086677
     63 C                     0.044242
     64 C                     0.203884
     65 N                    -0.522120
     66 N                    -0.566842
     67 C                     0.208474
     68 C                     0.269510
     69 S                     0.611776
     70 N                    -0.544679
     71 C                    -0.225477
     72 S                     0.342183
     73 C                    -0.088663
     74 C                    -0.204680
     75 S                     0.279899
     76 C                     0.103960
     77 C                     0.070937
     78 C                    -0.327309
     79 C                    -0.048636
     80 N                    -0.427465
     81 S                     0.263744
     82 C                     0.120403
     83 C                    -0.311018
     84 C                    -0.252233
     85 H                     0.082204
     86 H                     0.122873
     87 H                     0.093715
     88 H                     0.113864
     89 H                     0.135391
     90 H                     0.127509
     91 H                     0.116554
     92 H                     0.134902
     93 H                     0.111534
     94 C                    -0.188405
     95 H                     0.122536
     96 H                     0.097278
     97 H                     0.093623
     98 C                    -0.179235
     99 H                     0.105775
    100 C                    -0.174401
    101 H                     0.098714
    102 H                     0.089112
    103 H                     0.087403
    104 C                    -0.180513
    105 H                     0.097802
    106 C                    -0.319305
    107 H                     0.097239
    108 H                     0.104756
    109 H                     0.105671
    110 H                     0.099562
  ----------------------------------------
  Sum of atomic charges =     0.000000

 -----------------------------------------------------------------
                    Cartesian Multipole Moments
 -----------------------------------------------------------------
    Charge (ESU x 10^10)
                 0.0000
    Dipole Moment (Debye)
         X       2.8390      Y      -1.7051      Z      -1.5771
       Tot       3.6681
    Quadrupole Moments (Debye-Ang)
        XX    -367.9621     XY     -26.1593     YY    -415.5002
        XZ       5.0281     YZ      -8.8857     ZZ    -443.7149
    Octopole Moments (Debye-Ang^2)
       XXX     259.5863    XXY     166.5332    XYY     275.3001
       YYY    -318.1940    XXZ    -370.5773    XYZ     -21.9508
       YYZ      16.7939    XZZ     -31.0284    YZZ      32.3373
       ZZZ      -0.0030
    Hexadecapole Moments (Debye-Ang^3)
      XXXX -212914.0160   XXXY   -2569.4721   XXYY  -42634.3475
      XYYY   -1844.7808   YYYY  -32640.2408   XXXZ    2172.9722
      XXYZ    -385.1440   XYYZ      21.1848   YYYZ    -628.6057
      XXZZ  -39463.6680   XYZZ     -30.9892   YYZZ   -7075.4284
      XZZZ    -245.7883   YZZZ    -116.4733   ZZZZ   -5888.1038
 -----------------------------------------------------------------
Archival summary:
1\1\mn426\SP\ProcedureUnspecified\6-31G**\8105042\afmv_a\SatOct616:20:042018SatOct616:20:042018\0\\#,ProcedureUnspecified,6-31G**,\\0,1\S\C,1,1.71944\C,2,1.36809,1,112.481\C,3,1.39638,2,110.746,1,2.65878,0\C,4,1.3873,3,117.363,2,-5.90775,0\C,4,1.41533,3,109.075,2,-179.768,0\H,6,1.0838,4,127.585,3,-179.382,0\C,6,1.37999,4,110.723,3,-5.25365,0\H,8,1.08171,6,131.872,4,-177.902,0\C,5,1.44955,4,124.666,3,-160.802,0\N,10,1.30024,5,118.866,4,-1.53386,0\C,11,1.44227,10,106.485,5,176.746,0\H,12,1.08219,11,119.388,10,177.845,0\C,12,1.32278,11,116.825,10,1.82042,0\H,14,1.08202,12,129.524,11,176.732,0\C,2,1.47218,1,127.13,3,-171.164,0\N,16,1.33027,2,118.208,1,140.251,0\C,17,1.34664,16,121.905,2,174.547,0\H,18,1.08899,17,118.214,16,-177.898,0\C,18,1.40148,17,124.565,16,3.16463,0\C,16,1.40811,2,123.577,1,-37.6695,0\C,21,1.36505,16,120.711,2,-178.097,0\N,22,1.34215,21,115.587,16,179.214,0\N,21,1.37367,16,123.3,2,-6.66514,0\C,20,1.48484,18,120.783,17,177.854,0\C,25,1.40433,20,121.351,18,37.3194,0\H,26,1.08568,25,120.805,20,8.298,0\C,26,1.39619,25,118.877,20,-176.88,0\H,28,1.08574,26,121.041,25,-179.685,0\C,28,1.40324,26,123.936,25,1.69791,0\N,30,1.35615,28,116.191,26,1.4921,0\C,31,1.35709,30,122.33,28,-6.302,0\H,32,1.08878,31,113.904,30,169.53,0\C,30,1.51917,28,123.173,26,175.88,0\H,34,1.09679,30,103.858,28,174.236,0\H,34,1.09732,30,111.373,28,-68.0079,0\C,34,1.54615,30,112.181,28,56.8693,0\H,37,1.09716,34,110.572,30,165.912,0\H,37,1.09722,34,110.508,30,-76.3307,0\C,37,1.53779,34,111.632,30,41.2752,0\H,40,1.09683,37,108.969,34,55.2511,0\H,40,1.09749,37,110.993,34,-61.1916,0\C,40,1.52119,37,114.768,34,174.72,0\H,43,1.09646,40,112.827,37,-52.0085,0\H,43,1.09747,40,109.023,37,-171.094,0\C,43,1.52686,40,119.46,37,68.9044,0\H,46,1.09671,43,111.515,40,-60.3252,0\H,46,1.09714,43,109.552,40,-176.294,0\C,46,1.50416,43,113.049,40,64.5415,0\H,49,1.09735,46,111.821,43,-52.5227,0\H,49,1.09737,46,108.699,43,70.3426,0\H,49,1.09753,46,112.431,43,-171.306,0\S,23,1.58874,22,103.011,21,-0.0699394,0\S,3,1.71166,2,128.24,1,176.589,0\S,10,1.71675,5,121.69,4,170.815,0\H,15,2.25659,14,118.22,12,62.1549,0\C,56,1.08171,15,103.952,14,-161.125,0\C,57,1.39227,56,130.294,15,-114.287,0\H,58,1.0844,57,125.992,56,-6.04195,0\C,58,1.44521,57,110.018,56,179.254,0\C,60,1.3995,58,131.721,57,159.545,0\C,60,1.41116,58,110.671,57,0.828066,0\C,62,1.38485,60,111.56,58,170.626,0\C,61,1.4346,60,127.845,58,15.0893,0\N,64,1.29842,61,120.521,60,17.9033,0\C,65,1.37005,64,109.917,61,173.689,0\H,66,1.08152,65,114.368,64,175.554,0\C,66,1.37499,65,113.959,64,-0.800915,0\H,68,1.08251,66,127.486,65,156.378,0\C,63,1.46706,62,124.897,60,170.574,0\N,70,1.35538,63,117.839,62,-26.7282,0\C,71,1.34964,70,116.86,63,-173.417,0\H,72,1.08881,71,109.218,70,-179.854,0\C,72,1.41408,71,128.261,70,1.98936,0\C,74,1.3928,72,113.439,71,-4.28445,0\N,75,1.38234,74,126.83,72,-177.176,0\C,75,1.39236,74,121.32,72,-0.163497,0\N,77,1.32282,75,114.185,74,172.493,0\C,74,1.4867,72,122.345,71,-179.953,0\C,79,1.39122,74,116.457,72,2.8614,0\H,80,1.08879,79,118.927,74,-14.6807,0\N,80,1.35327,79,127.351,74,170.364,0\C,82,1.35622,80,118.233,79,-2.99877,0\C,83,1.37581,82,118.074,80,-5.68792,0\H,84,1.0861,83,119.139,82,-170.74,0\C,84,1.3727,83,122.132,82,7.74141,0\H,86,1.08556,84,117.367,83,177.127,0\C,83,1.46242,82,117.392,80,-178.592,0\H,88,1.09641,83,103.132,82,-2.84458,0\H,88,1.09656,83,109.486,82,116.619,0\C,88,1.57071,83,109.871,82,-121.222,0\H,91,1.09653,88,102.228,83,166.047,0\H,91,1.09727,88,108.599,83,-80.0913,0\C,91,1.53885,88,113.656,83,48.8261,0\H,94,1.09657,91,107.682,88,-75.3686,0\H,94,1.09665,91,106.033,88,42.2537,0\C,94,1.54782,91,113.486,88,162.971,0\H,97,1.09656,94,111.145,91,52.4179,0\H,97,1.09675,94,106.969,91,-59.7417,0\C,97,1.5789,94,115.802,91,172.526,0\H,100,1.09633,97,109.577,94,49.2826,0\H,100,1.09687,97,107.775,94,-65.2591,0\C,100,1.56159,97,107.376,94,176.646,0\H,103,1.09672,100,111.537,97,-56.9993,0\H,103,1.09707,100,112.853,97,60.0531,0\H,103,1.09727,100,108.742,97,-173.88,0\S,78,1.61026,77,108.051,75,6.68407,0\S,61,1.69896,60,108.861,58,-163.342,0\S,62,1.70384,60,115.476,58,-4.53679,0\S,68,1.7269,66,113.365,65,3.75428,0\\\@

 Total job time:  86.03s(wall), 931.94s(cpu) 
 Sat Oct  6 16:20:04 2018

        *************************************************************
        *                                                           *
        *  Thank you very much for using Q-Chem.  Have a nice day.  *
        *                                                           *
        *************************************************************


