
Running Job 1 of 1 ./10/77.qcin
qchem ./10/77.qcin_32411.0 /tmpu/cab_g/afmv_a/scratch_qchem/qchem32411/ 1
/tmpu/appuserlic/qchem4.4/serial-multicore/exe/qcprog.exe_s ./10/77.qcin_32411.0 /tmpu/cab_g/afmv_a/scratch_qchem/qchem32411/
Check license passed

                  Welcome to Q-Chem
     A Quantum Leap Into The Future Of Chemistry


 Q-Chem 4.4, Q-Chem, Inc., Pleasanton, CA (2016)

 Y. Shao,  Z. Gan,  E. Epifanovsky,  A. T. B. Gilbert,  M. Wormit,  
 J. Kussmann,  A. W. Lange,  A. Behn,  J. Deng,  X. Feng,  D. Ghosh,  
 M. Goldey,  P. R. Horn,  L. D. Jacobson,  I. Kaliman,  F. Rob,  
 R. Z. Khaliullin,  T. Kus,  A. Landau,  J. Liu,  E. I. Proynov,  Y. M. Rhee,  
 R. M. Richard,  M. A. Rohrdanz,  R. P. Steele,  E. J. Sundstrom,  
 H. L. Woodcock III,  P. M. Zimmerman,  D. Zuev,  B. Albrecht,  E. Alguire,  
 B. Austin,  S. A. Baeppler,  G. J. O. Beran,  Y. A. Bernard,  E. Berquist,  
 K. Brandhorst,  K. B. Bravaya,  S. T. Brown,  D. Casanova,  C.-M. Chang,  
 Y. Chen,  S. H. Chien,  K. D. Closser,  M. P. Coons,  D. L. Crittenden,  
 S. Dasgupta,  M. Diedenhofen,  R. A. DiStasio Jr.,  H. Do,  A. D. Dutoi,  
 R. G. Edgar,  P.-T. Fang,  S. Fatehi,  Q. Feng,  L. Fusti-Molnar,  
 A. Ghysels,  A. Golubeva-Zadorozhnaya,  J. Gomes,  A. Gunina,  
 M. W. D. Hanson-Heine,  P. H. P. Harbach,  A. W. Hauser,  J. E. Herr,  
 E. G. Hohenstein,  Z. C. Holden,  K. Hui,  T.-C. Jagau,  H. Ji,  B. Kaduk,  
 K. Khistyaev,  Jaehoon Kim,  Jihan Kim,  R. A. King,  P. Klunzinger,  
 K. Koh,  D. Kosenkov,  T. Kowalczyk,  C. M. Krauter,  A. Kunitsa,  
 K. U. Lao,  A. Laurent,  K. V. Lawler,  J. Lee,  D. Lefrancois,  S. Lehtola,  
 S. V. Levchenko,  C. Y. Lin,  Y.-S. Lin,  F. Liu,  E. Livshits,  
 R. C. Lochan,  A. Luenser,  P. Manohar,  S. F. Manzer,  S.-P. Mao,  Y. Mao,  
 N. Mardirossian,  A. V. Marenich,  L. A. Martinez-Martinez,  S. A. Maurer,  
 N. J. Mayhall,  J.-M. Mewes,  A. F. Morrison,  K. Nanda,  T. S. Nguyen-Beck,  
 C. M. Oana,  R. Olivares-Amaya,  D. P. O'Neill,  J. A. Parkhill,  
 T. M. Perrine,  R. Peverati,  P. A. Pieniazek,  F. Plasser,  A. Prociuk,  
 D. R. Rehn,  E. Rosta,  N. J. Russ,  N. Sergueev,  S. M. Sharada,  
 S. Sharma,  D. W. Small,  A. Sodt,  T. Stauch,  T. Stein,  D. Stuck,  
 Y.-C. Su,  A. J. W. Thom,  T. Tsuchimochi,  L. Vogt,  O. Vydrov,  T. Wang,  
 M. A. Watson,  J. Wenzel,  A. White,  C. F. Williams,  V. Vanovschi,  
 K. Yao,  S. Yeganeh,  S. R. Yost,  Z.-Q. You,  I. Y. Zhang,  X. Zhang,  
 Y. Zhao,  B. R. Brooks,  G. K. L. Chan,  D. M. Chipman,  C. J. Cramer,  
 W. A. Goddard III,  M. S. Gordon,  W. J. Hehre,  A. Klamt,  
 H. F. Schaefer III,  M. W. Schmidt,  C. D. Sherrill,  D. G. Truhlar,  
 A. Warshel,  X. Xu,  A. Aspuru-Guzik,  R. Baer,  A. T. Bell,  N. A. Besley,  
 J.-D. Chai,  A. Dreuw,  B. D. Dunietz,  T. R. Furlani,  S. R. Gwaltney,  
 C.-P. Hsu,  Y. Jung,  J. Kong,  D. S. Lambrecht,  W. Liang,  C. Ochsenfeld,  
 V. A. Rassolov,  L. V. Slipchenko,  J. E. Subotnik,  T. Van Voorhis,  
 J. M. Herbert,  A. I. Krylov,  P. M. W. Gill,  M. Head-Gordon

 Contributors to earlier versions of Q-Chem not listed above: 
 R. D. Adamson,  J. Baker,  E. F. C. Byrd,  A. K. Chakraborty,  C.-L. Cheng,  
 H. Dachsel,  R. J. Doerksen,  G. Hawkins,  A. Heyden,  S. Hirata,  
 G. Kedziora,  F. J. Keil,  C. Kelley,  P. P. Korambath,  W. Kurlancheek,  
 A. M. Lee,  M. S. Lee,  D. Liotard,  I. Lotan,  P. E. Maslen,  N. Nair,  
 D. Neuhauser,  R. Olson,  B. Peters,  J. Ritchie,  N. E. Schultz,  
 N. Shenvi,  A. C. Simmonett,  K. S. Thanthiriwatte,  Q. Wu,  W. Zhang

 Please cite Q-Chem as follows:
 Y. Shao et al., Mol. Phys. 113, 184-215 (2015)
 DOI: 10.1080/00268976.2014.952696

 Q-Chem 4.4.2 for Intel X86 Linux

 Parts of Q-Chem use Armadillo 5.200.1 (Boston Tea Smuggler).
 http://arma.sourceforge.net/

 Q-Chem begins on Sat Oct  6 16:26:16 2018  

Host: 
0

     Scratch files written to /tmpu/cab_g/afmv_a/scratch_qchem/qchem32411//
 Dec716 11556_ 22328  22283 4050   
Processing $rem in /tmpu/appuserlic/qchem4.4/serial-multicore/config/preferences.
 MEM_TOTAL  2000 
FILE_GEOM_ORG=        593

Checking the input file for inconsistencies... 	...done.

--------------------------------------------------------------
User input:
--------------------------------------------------------------
$comment
SP
$end

$rem
MEM_STATIC 5000
MEM_TOTAL 20000
JOBTYPE SP
EXCHANGE B3LYP
BASIS 6-31g(d,p)
$end

$molecule
0 1
C           3.335000    -17.752000     -6.129000
C           2.920000    -18.174000     -4.835000
N           2.631000    -16.973000     -6.881000
C           1.590000    -18.008000     -4.489000
C           1.360000    -16.703000     -6.523000
C           0.719000    -17.344000     -5.381000
C          -0.611000    -16.754000     -4.942000
C          -0.912000    -15.342000     -4.944000
C          -1.600000    -17.543000     -4.459000
N          -2.005000    -14.875000     -4.420000
N          -1.531000    -18.906000     -4.426000
C          -2.786000    -17.089000     -3.956000
C          -2.952000    -15.694000     -3.951000
S          -3.002000    -19.450000     -3.922000
N          -3.732000    -18.010000     -3.562000
C          -4.146000    -15.094000     -3.306000
S          -5.190000    -15.777000     -1.940000
C          -4.540000    -13.801000     -3.482000
C          -6.050000    -14.292000     -1.641000
S          -3.926000    -12.618000     -4.589000
C          -5.520000    -13.395000     -2.526000
C          -6.971000    -13.989000     -0.631000
C          -5.180000    -11.581000     -3.941000
C          -5.929000    -12.129000     -2.872000
N          -7.181000    -12.730000     -0.249000
S          -7.415000    -15.193000      0.564000
C          -7.693000    -12.621000      1.000000
C          -7.923000    -13.869000      1.643000
C           4.715000    -18.053000     -6.638000
H           3.630000    -18.790000     -4.290000
H           1.269000    -18.317000     -3.499000
H           0.916000    -15.868000     -7.062000
H          -0.172000    -14.573000     -5.159000
H          -5.238000    -10.589000     -4.369000
H          -6.762000    -11.645000     -2.376000
H          -7.888000    -11.683000      1.504000
H          -8.463000    -14.043000      2.565000
H           4.928000    -18.986000     -6.101000
C           5.836000    -17.014000     -6.335000
H           4.700000    -18.303000     -7.706000
H           6.834000    -17.469000     -6.311000
H           5.786000    -16.582000     -5.328000
C           5.760000    -15.862000     -7.379000
H           5.485000    -16.102000     -8.413000
C           6.995000    -14.981000     -7.431000
H           4.950000    -15.196000     -7.058000
H           7.918000    -15.503000     -7.714000
H           7.073000    -14.648000     -6.389000
C           6.792000    -13.973000     -8.478000
H           6.688000    -14.467000     -9.452000
C           7.959000    -12.922000     -8.535000
H           5.848000    -13.428000     -8.355000
H           7.890000    -12.199000     -9.357000
H           8.914000    -13.460000     -8.567000
H           8.118000    -12.281000     -7.659000
C           5.260000    -21.881000     -3.850000
C           6.227000    -22.846000     -4.042000
N           5.564000    -20.671000     -3.291000
C           7.577000    -22.568000     -3.865000
C           6.863000    -20.408000     -3.065000
C           7.977000    -21.223000     -3.427000
C           9.434000    -20.822000     -3.166000
C          10.400000    -21.603000     -2.569000
C           9.842000    -19.518000     -3.467000
N          11.710000    -21.243000     -2.455000
N           9.046000    -18.572000     -3.880000
C          11.176000    -19.165000     -3.378000
C          12.062000    -20.072000     -2.860000
S          10.069000    -17.296000     -4.160000
N          11.494000    -17.922000     -3.704000
C          13.563000    -19.938000     -2.720000
S          14.470000    -20.597000     -1.394000
C          14.379000    -19.114000     -3.490000
C          15.973000    -19.818000     -1.987000
S          14.090000    -18.268000     -5.025000
C          15.708000    -19.142000     -3.138000
C          17.307000    -20.134000     -1.610000
C          15.791000    -17.926000     -5.103000
C          16.575000    -18.436000     -4.058000
N          18.116000    -19.173000     -1.564000
S          17.730000    -21.533000     -0.677000
C          19.233000    -19.432000     -0.863000
C          19.248000    -20.707000     -0.357000
C           3.717000    -22.283000     -3.984000
H           5.972000    -23.823000     -4.443000
H           8.310000    -23.313000     -4.161000
H           7.004000    -19.458000     -2.553000
H          10.089000    -22.596000     -2.249000
H          16.131000    -17.257000     -5.883000
H          17.638000    -18.263000     -3.932000
H          19.948000    -18.643000     -0.672000
H          20.007000    -21.149000      0.275000
H           3.597000    -23.353000     -3.771000
C           3.171000    -21.887000     -5.332000
H           3.238000    -21.653000     -3.225000
H           3.656000    -22.507000     -6.096000
H           3.343000    -20.827000     -5.556000
C           1.589000    -22.041000     -5.264000
H           1.238000    -23.006000     -4.879000
C           0.931000    -21.809000     -6.636000
H           1.241000    -21.276000     -4.560000
H           1.469000    -22.422000     -7.370000
H           1.054000    -20.755000     -6.915000
C          -0.628000    -21.942000     -6.664000
H          -0.874000    -22.966000     -6.360000
C          -1.236000    -21.503000     -8.026000
H          -1.115000    -21.376000     -5.860000
H          -0.802000    -22.080000     -8.852000
H          -1.009000    -20.441000     -8.186000
H          -2.327000    -21.610000     -8.060000
$end

--------------------------------------------------------------
 ----------------------------------------------------------------
             Standard Nuclear Orientation (Angstroms)
    I     Atom           X                Y                Z
 ----------------------------------------------------------------
    1      C       1.1849647563    -0.4201502770     2.3531228491
    2      C       1.4978263498    -0.7561034166     1.0062753776
    3      N       2.0442559754     0.0793644154     3.1777831869
    4      C       2.8319912252    -0.8492628977     0.6492076019
    5      C       3.3443961870     0.1014290963     2.8233066998
    6      C       3.8276992020    -0.5160580397     1.5940574034
    7      C       5.2576262470    -0.1876706263     1.1975837567
    8      C       5.8689330544     1.1091379453     1.3677028797
    9      C       6.0448239944    -1.1099082535     0.5944847056
   10      N       7.0404814610     1.3825193415     0.8777529403
   11      N       5.6706771893    -2.4073350248     0.3936939151
   12      C       7.3039957477    -0.8725710141     0.1213266658
   13      C       7.7799625363     0.4389088717     0.2858931423
   14      S       6.9827301027    -3.1980087209    -0.2122312111
   15      N       8.0193197087    -1.9240653923    -0.4088282205
   16      C       9.0802078338     0.8336078607    -0.3101235307
   17      S       9.9473125862     0.1138692275    -1.7772590555
   18      C       9.7548382525     1.9724724720     0.0153333717
   19      C      11.1205281464     1.3944439255    -1.9111235090
   20      S       9.4200220249     3.1121067529     1.2767079393
   21      C      10.8037468718     2.2671743890    -0.9077665624
   22      C      12.0889022506     1.6096913108    -2.8990861386
   23      C      10.8771664176     3.9160348022     0.7306137073
   24      C      11.4864394701     3.3549568915    -0.4174472343
   25      N      12.5781482201     2.8278892691    -3.1265440814
   26      S      12.2536012858     0.4990034706    -4.2459431278
   27      C      13.1049982604     2.9776093455    -4.3651073352
   28      C      13.0497585799     1.8020366757    -5.1643760483
   29      C      -0.2287745882    -0.4669979933     2.8563408508
   30      H       0.6688315520    -1.1231133230     0.4073994691
   31      H       3.0778801585    -1.0936804272    -0.3795881523
   32      H       3.9635734742     0.7403421846     3.4504363137
   33      H       5.3205724286     1.9904414261     1.6960179702
   34      H      11.1559358264     4.8071548308     1.2772440315
   35      H      12.4084221418     3.6993793149    -0.8707486212
   36      H      13.5076632255     3.9045083495    -4.7531848562
   37      H      13.5392388173     1.6304119891    -6.1145939517
   38      H      -0.6449688303    -1.2525513866     2.2129784187
   39      C      -1.0860919796     0.8263837129     2.7144195611
   40      H      -0.2734284564    -0.8478519173     3.8841080037
   41      H      -2.1608620812     0.6130838662     2.6598539662
   42      H      -0.9372826778     1.3607963825     1.7681469312
   43      C      -0.7554509975     1.7896866117     3.8915092204
   44      H      -0.5444408527     1.3646453539     4.8800412877
   45      C      -1.7604101179     2.9107212992     4.0849734179
   46      H       0.1846333128     2.2928500096     3.6350621800
   47      H      -2.7780493158     2.5768260269     4.3246114993
   48      H      -1.7585134878     3.3825659356     3.0949754170
   49      C      -1.3384771874     3.7060778357     5.2437928957
   50      H      -1.3511185895     3.0814955103     6.1456050234
   51      C      -2.2389059171     4.9755314308     5.4616338303
   52      H      -0.2956399915     4.0371360951     5.1651734848
   53      H      -2.0111013950     5.5541118124     6.3652509182
   54      H      -3.2906317402     4.6652800486     5.4511518036
   55      H      -2.2470108861     5.7419942247     4.6767726355
   56      C      -1.6142941092    -3.6892186530    -0.3718448126
   57      C      -2.7743348954    -4.4297576997    -0.2765279993
   58      N      -1.6363842966    -2.3808304979    -0.7676092113
   59      C      -4.0265282283    -3.8365247198    -0.3823556351
   60      C      -2.8421314990    -1.8072675865    -0.9252330377
   61      C      -4.1120776309    -2.3916047256    -0.6387859573
   62      C      -5.4405829072    -1.6448841154    -0.8098212200
   63      C      -6.5560197289    -2.1074330412    -1.4741819562
   64      C      -5.5452076250    -0.3318436952    -0.3381650704
   65      N      -7.7509453058    -1.4519318029    -1.5083432255
   66      N      -4.5577262987     0.3516011228     0.1686729817
   67      C      -6.7651622856     0.3190819632    -0.3477782435
   68      C      -7.8312551030    -0.2931756441    -0.9515627473
   69      S      -5.2677929236     1.7778698534     0.6319956514
   70      N      -6.7959094779     1.5498580618     0.1387336325
   71      C      -9.2631053908     0.1899889707    -1.0347114589
   72      S     -10.2915603904    -0.0750945485    -2.4084716424
   73      C      -9.8746604958     1.0708106509    -0.1470823014
   74      C     -11.5821041782     0.9384929089    -1.6841538959
   75      S      -9.4067789185     1.6282763811     1.4733438121
   76      C     -11.1748346867     1.3859290542    -0.4651647831
   77      C     -12.9519517755     0.9796176040    -2.0627926678
   78      C     -10.9872408903     2.3294386318     1.6375401997
   79      C     -11.8630733717     2.1450488753     0.5578648400
   80      N     -13.5235689916     2.0951070261    -1.9676343399
   81      S     -13.6766173700    -0.1588435084    -3.1515465755
   82      C     -14.6682579521     2.1839899604    -2.6661742512
   83      C     -14.9686615172     1.0197124945    -3.3265542028
   84      C      -0.2018728920    -4.4399857828    -0.3291362443
   85      H      -2.7470653569    -5.4819254775    -0.0071688719
   86      H      -4.9093169122    -4.4300735332    -0.1625513000
   87      H      -2.7641054736    -0.7925716709    -1.3110168351
   88      H      -6.4757974896    -3.0958315937    -1.9234065034
   89      H     -11.1699712209     2.9527017331     2.5034003113
   90      H     -12.8594353623     2.5661107726     0.4820778867
   91      H     -15.1866322460     3.1306964284    -2.7387135846
   92      H     -15.8059630875     0.8428752438    -3.9887653981
   93      H      -0.3253817557    -5.4736690560    -0.6768623594
   94      C       0.4155597577    -4.3510617437     1.0430537711
   95      H       0.4088225019    -3.8418012116    -1.0159028384
   96      H      -0.1987427948    -4.9388771068     1.7361818061
   97      H       0.4861222161    -3.3168059260     1.4017957996
   98      C       1.9223990413    -4.8452050253     0.9152970077
   99      H       2.0480800489    -5.8072251247     0.4040508707
  100      C       2.6119460983    -4.9428695814     2.2879435357
  101      H       2.4357175090    -4.0942573177     0.3033111491
  102      H       1.9476655432    -5.5082435456     2.9535655191
  103      H       2.7287454065    -3.9323755365     2.6992168109
  104      C       4.1008409584    -5.4237918793     2.2586205229
  105      H       4.1107068933    -6.4296376435     1.8230921518
  106      C       4.7883269324    -5.3089718111     3.6484436726
  107      H       4.7050395041    -4.8835134632     1.5190366194
  108      H       4.2332275481    -5.8745386762     4.4071002450
  109      H       4.8059306815    -4.2523314455     3.9453851580
  110      H       5.8270902481    -5.6608145184     3.6404760358
 ----------------------------------------------------------------
 Molecular Point Group                 C1    NOp =  1
 Largest Abelian Subgroup              C1    NOp =  1
 Nuclear Repulsion Energy = 10803.4668585374 hartrees
 There are      270 alpha and      270 beta electrons
 Requested basis set is 6-31G(d,p)
 There are 406 shells and 1262 basis functions

 Total QAlloc Memory Limit  20000 MB
 Mega-Array Size      4888 MB
 MEM_STATIC part      5000 MB
 A cutoff of  1.0D-08 yielded  14083 shell pairs
 There are    142560 function pairs
 
 -------------------------------------------------------
 OpenMP Integral Computing Module                       
 Release: version 1.0, May 2013, Q-Chem Inc. Pittsburgh 
 -------------------------------------------------------
 Integral Job Info:
 Integral job number is                      11
 Integral operator is                         1
 short-range coefficients                     0
 long-range coefficients              100000000
 Omega coefficients                           0
 if combine SR and LR in K                    0
 Integral screening is                        0
 Integral computing path is                   2
 max size of driver memory is            800000
 size of driver memory is                593474
 size of scratch memory is             15166112
 max col of scratch BK array               1296
 max len of scratch array in speh3          155
 max len of scratch index in speh4           18
 max int batch size is                      520
 min int batch size is                       52
 fixed nKL is                                52
 max L of basis functions is                  2
 order of int derivative is                   0
 number of shells is                        406
 number of basis is                        1262
 number of cartesian basis is              1262
 number of contracted shell pairs         14083
 number of primitive shell pairs          44314
 maxK2 (contraction) of shell pair           36
 max number of K2 of shell pair               1
 max number of CS2 of shell pair           1374
 max number of PS2 of shell pair           7974
 mem total for path MDJ                  292024
 -------------------------------------------------------
 Smallest overlap matrix eigenvalue = 3.80E-04

 Scale SEOQF with 1.000000e-02/1.000000e-02/1.000000e-02

 Standard Electronic Orientation quadrupole field applied
 Nucleus-field energy     =     0.0000001262 hartrees
 Guess from superposition of atomic densities
 Warning:  Energy on first SCF cycle will be non-variational
 A restricted hybrid HF-DFT SCF calculation will be
 performed using Pulay DIIS extrapolation
 Exchange:     0.2000 Hartree-Fock + 0.0800 Slater + 0.7200 B88
 Correlation:  0.1900 VWN1RPA + 0.8100 LYP
 Using SG-1 standard quadrature grid
 SCF converges when DIIS error is below 1.0E-05
 using 16 threads for integral computing 
 -------------------------------------------------------
 OpenMP BLAS3 based DFT computing Module                
 Release: version 1.0, May 2013, Q-Chem Inc. Pittsburgh 
 -------------------------------------------------------
 ---------------------------------------
  Cycle       Energy         DIIS Error
 ---------------------------------------
    1   -5680.6002612822      2.17E-02
    2   -5662.3992516076      2.22E-03
    3   -5660.2530985309      3.78E-03
    4   -5663.1945435939      1.13E-03
    5   -5663.4202057888      4.95E-04
    6   -5663.4465172108      3.41E-04
    7   -5663.4678717262      1.15E-04
    8   -5663.4702332781      4.38E-05
    9   -5663.4706117433      1.69E-05
   10   -5663.4706681325      5.94E-06 Convergence criterion met
 ---------------------------------------
 SCF time:  CPU 1066.90 s  wall 95.16 s
 SCF   energy in the final basis set = -5663.4706681325
 Total energy in the final basis set = -5663.4706681325
 
 --------------------------------------------------------------
 
                    Orbital Energies (a.u.)
 --------------------------------------------------------------
 
 Alpha MOs
 -- Occupied --
-88.992 -88.990 -88.924 -88.924 -88.921 -88.919 -88.909 -88.906
-14.396 -14.391 -14.388 -14.381 -14.349 -14.349 -14.342 -14.340
-14.332 -14.321 -10.268 -10.260 -10.258 -10.256 -10.254 -10.253
-10.250 -10.246 -10.243 -10.241 -10.240 -10.236 -10.236 -10.236
-10.235 -10.235 -10.233 -10.231 -10.229 -10.229 -10.229 -10.227
-10.226 -10.224 -10.224 -10.224 -10.223 -10.223 -10.221 -10.220
-10.219 -10.212 -10.201 -10.200 -10.198 -10.197 -10.192 -10.192
-10.187 -10.183 -10.181 -10.177 -10.177 -10.175 -10.173 -10.171
-10.170 -10.168 -10.166 -10.165  -8.047  -8.046  -7.985  -7.983
 -7.983  -7.978  -7.969  -7.967  -6.012  -6.011  -6.007  -6.006
 -6.005  -6.004  -5.949  -5.947  -5.947  -5.945  -5.944  -5.943
 -5.943  -5.942  -5.940  -5.939  -5.939  -5.934  -5.934  -5.931
 -5.930  -5.927  -5.926  -5.923  -1.059  -1.032  -0.991  -0.978
 -0.972  -0.967  -0.947  -0.940  -0.929  -0.911  -0.910  -0.898
 -0.843  -0.842  -0.834  -0.833  -0.814  -0.811  -0.806  -0.805
 -0.804  -0.799  -0.798  -0.797  -0.784  -0.783  -0.771  -0.767
 -0.749  -0.749  -0.740  -0.738  -0.723  -0.718  -0.706  -0.703
 -0.694  -0.688  -0.678  -0.678  -0.661  -0.656  -0.651  -0.646
 -0.635  -0.635  -0.628  -0.627  -0.612  -0.607  -0.601  -0.594
 -0.592  -0.591  -0.581  -0.579  -0.579  -0.576  -0.571  -0.569
 -0.560  -0.553  -0.545  -0.538  -0.525  -0.520  -0.512  -0.508
 -0.506  -0.505  -0.503  -0.495  -0.494  -0.488  -0.486  -0.478
 -0.477  -0.473  -0.470  -0.469  -0.467  -0.460  -0.453  -0.449
 -0.443  -0.440  -0.439  -0.435  -0.434  -0.431  -0.428  -0.426
 -0.425  -0.424  -0.423  -0.419  -0.418  -0.417  -0.417  -0.412
 -0.409  -0.406  -0.403  -0.403  -0.401  -0.400  -0.396  -0.396
 -0.395  -0.395  -0.393  -0.391  -0.389  -0.384  -0.383  -0.379
 -0.378  -0.374  -0.371  -0.365  -0.364  -0.363  -0.361  -0.360
 -0.355  -0.353  -0.351  -0.349  -0.346  -0.344  -0.343  -0.342
 -0.340  -0.334  -0.333  -0.330  -0.329  -0.328  -0.323  -0.321
 -0.316  -0.313  -0.311  -0.309  -0.305  -0.303  -0.299  -0.297
 -0.296  -0.292  -0.290  -0.289  -0.286  -0.285  -0.282  -0.279
 -0.277  -0.274  -0.274  -0.264  -0.260  -0.251  -0.249  -0.247
 -0.246  -0.239  -0.236  -0.227  -0.193  -0.187
 -- Virtual --
 -0.117  -0.112  -0.077  -0.067  -0.044  -0.037  -0.026  -0.023
 -0.022  -0.016  -0.014  -0.012  -0.008  -0.005  -0.002   0.000
  0.002   0.004   0.021   0.023   0.029   0.034   0.037   0.038
  0.045   0.049   0.054   0.058   0.071   0.080   0.085   0.095
  0.097   0.099   0.102   0.103   0.107   0.112   0.113   0.115
  0.116   0.118   0.118   0.119   0.121   0.124   0.125   0.127
  0.128   0.130   0.133   0.135   0.136   0.138   0.139   0.145
  0.148   0.152   0.158   0.159   0.160   0.161   0.163   0.167
  0.167   0.171   0.172   0.174   0.178   0.179   0.184   0.185
  0.187   0.191   0.192   0.193   0.194   0.196   0.198   0.202
  0.203   0.206   0.208   0.210   0.210   0.215   0.216   0.221
  0.222   0.223   0.226   0.227   0.236   0.237   0.239   0.243
  0.246   0.247   0.249   0.251   0.257   0.260   0.263   0.266
  0.269   0.270   0.275   0.276   0.278   0.278   0.279   0.282
  0.282   0.285   0.289   0.291   0.296   0.298   0.301   0.306
  0.311   0.311   0.314   0.318   0.320   0.321   0.323   0.326
  0.328   0.332   0.337   0.339   0.342   0.344   0.346   0.349
  0.352   0.354   0.357   0.361   0.365   0.369   0.369   0.373
  0.376   0.377   0.382   0.384   0.385   0.393   0.395   0.401
  0.405   0.406   0.409   0.411   0.426   0.428   0.430   0.434
  0.442   0.447   0.449   0.454   0.455   0.464   0.466   0.467
  0.475   0.480   0.485   0.487   0.491   0.495   0.497   0.500
  0.504   0.505   0.508   0.509   0.512   0.512   0.516   0.517
  0.520   0.522   0.523   0.526   0.526   0.528   0.530   0.534
  0.536   0.537   0.538   0.541   0.542   0.545   0.547   0.551
  0.552   0.552   0.557   0.559   0.560   0.561   0.562   0.563
  0.566   0.569   0.571   0.575   0.576   0.578   0.581   0.581
  0.583   0.585   0.587   0.592   0.592   0.594   0.597   0.599
  0.600   0.603   0.604   0.606   0.607   0.610   0.612   0.612
  0.616   0.619   0.621   0.622   0.622   0.626   0.629   0.630
  0.632   0.632   0.634   0.637   0.637   0.641   0.642   0.645
  0.648   0.651   0.657   0.658   0.660   0.663   0.669   0.670
  0.675   0.678   0.681   0.683   0.686   0.688   0.689   0.693
  0.695   0.703   0.705   0.707   0.709   0.711   0.717   0.721
  0.722   0.725   0.728   0.731   0.734   0.741   0.743   0.748
  0.749   0.754   0.755   0.761   0.762   0.764   0.765   0.769
  0.772   0.775   0.775   0.776   0.780   0.781   0.787   0.790
  0.790   0.794   0.798   0.800   0.802   0.804   0.806   0.808
  0.810   0.813   0.814   0.817   0.817   0.819   0.819   0.820
  0.823   0.826   0.829   0.831   0.832   0.834   0.835   0.837
  0.840   0.842   0.844   0.845   0.849   0.850   0.852   0.853
  0.856   0.858   0.858   0.860   0.862   0.864   0.868   0.871
  0.874   0.877   0.880   0.883   0.885   0.887   0.888   0.890
  0.893   0.895   0.896   0.900   0.903   0.905   0.906   0.910
  0.913   0.914   0.917   0.918   0.921   0.924   0.927   0.929
  0.932   0.936   0.937   0.939   0.941   0.945   0.948   0.951
  0.952   0.954   0.958   0.959   0.960   0.964   0.967   0.969
  0.970   0.971   0.972   0.974   0.979   0.983   0.984   0.987
  0.989   0.992   0.994   0.998   0.999   1.000   1.006   1.010
  1.013   1.016   1.017   1.022   1.022   1.024   1.028   1.031
  1.036   1.037   1.037   1.038   1.039   1.044   1.046   1.051
  1.052   1.053   1.059   1.063   1.064   1.069   1.074   1.075
  1.081   1.085   1.090   1.094   1.096   1.100   1.103   1.107
  1.116   1.120   1.128   1.131   1.139   1.143   1.145   1.149
  1.149   1.152   1.154   1.155   1.158   1.172   1.173   1.179
  1.186   1.189   1.194   1.201   1.204   1.207   1.210   1.218
  1.222   1.230   1.234   1.242   1.245   1.253   1.259   1.268
  1.269   1.274   1.276   1.280   1.281   1.290   1.295   1.297
  1.300   1.302   1.311   1.314   1.320   1.322   1.330   1.336
  1.339   1.340   1.352   1.356   1.364   1.365   1.370   1.372
  1.376   1.381   1.385   1.390   1.394   1.397   1.401   1.403
  1.404   1.407   1.411   1.423   1.425   1.429   1.433   1.444
  1.446   1.450   1.454   1.461   1.466   1.468   1.475   1.478
  1.482   1.485   1.491   1.494   1.502   1.503   1.509   1.511
  1.521   1.533   1.534   1.540   1.545   1.558   1.563   1.566
  1.571   1.586   1.588   1.590   1.599   1.603   1.606   1.612
  1.618   1.622   1.625   1.629   1.636   1.638   1.644   1.648
  1.649   1.657   1.664   1.666   1.671   1.675   1.679   1.679
  1.687   1.687   1.693   1.696   1.700   1.700   1.702   1.704
  1.709   1.714   1.719   1.725   1.731   1.733   1.734   1.750
  1.755   1.758   1.761   1.767   1.769   1.773   1.780   1.783
  1.787   1.790   1.798   1.805   1.808   1.812   1.819   1.823
  1.825   1.827   1.829   1.832   1.834   1.836   1.845   1.850
  1.853   1.854   1.855   1.862   1.863   1.867   1.869   1.873
  1.876   1.881   1.881   1.890   1.892   1.897   1.903   1.905
  1.905   1.910   1.912   1.916   1.921   1.923   1.927   1.930
  1.932   1.934   1.938   1.943   1.946   1.948   1.950   1.957
  1.960   1.961   1.967   1.970   1.982   1.986   1.989   1.990
  1.996   2.006   2.013   2.016   2.018   2.023   2.030   2.036
  2.042   2.051   2.054   2.057   2.062   2.065   2.073   2.075
  2.078   2.080   2.088   2.096   2.098   2.102   2.106   2.108
  2.109   2.112   2.114   2.115   2.119   2.126   2.131   2.131
  2.137   2.141   2.147   2.152   2.152   2.153   2.153   2.164
  2.164   2.167   2.171   2.172   2.178   2.182   2.188   2.192
  2.193   2.200   2.206   2.207   2.210   2.216   2.223   2.226
  2.231   2.232   2.238   2.239   2.241   2.250   2.252   2.260
  2.260   2.269   2.274   2.274   2.281   2.282   2.285   2.286
  2.290   2.291   2.295   2.302   2.303   2.309   2.313   2.314
  2.317   2.321   2.322   2.324   2.327   2.332   2.337   2.343
  2.344   2.349   2.353   2.357   2.360   2.366   2.370   2.372
  2.377   2.380   2.383   2.388   2.391   2.393   2.396   2.397
  2.401   2.402   2.410   2.412   2.415   2.420   2.422   2.425
  2.430   2.431   2.434   2.439   2.441   2.443   2.447   2.448
  2.454   2.459   2.460   2.462   2.465   2.469   2.471   2.475
  2.475   2.481   2.483   2.488   2.493   2.494   2.501   2.508
  2.515   2.516   2.521   2.523   2.526   2.532   2.536   2.536
  2.549   2.551   2.554   2.554   2.557   2.559   2.567   2.572
  2.574   2.581   2.583   2.588   2.592   2.595   2.597   2.607
  2.615   2.623   2.625   2.626   2.631   2.640   2.643   2.656
  2.659   2.662   2.666   2.671   2.673   2.679   2.681   2.686
  2.691   2.695   2.695   2.696   2.701   2.702   2.705   2.708
  2.710   2.714   2.720   2.729   2.729   2.736   2.742   2.750
  2.753   2.760   2.769   2.771   2.779   2.782   2.784   2.798
  2.804   2.807   2.814   2.815   2.826   2.827   2.833   2.837
  2.844   2.846   2.858   2.859   2.861   2.870   2.872   2.876
  2.880   2.882   2.886   2.888   2.892   2.900   2.908   2.911
  2.914   2.918   2.924   2.936   2.939   2.945   2.951   2.954
  2.960   2.977   2.978   2.989   2.998   3.006   3.011   3.035
  3.039   3.047   3.063   3.064   3.098   3.108   3.121   3.138
  3.157   3.180   3.182   3.189   3.202   3.228   3.234   3.245
  3.252   3.253   3.263   3.265   3.268   3.271   3.280   3.295
  3.300   3.302   3.307   3.314   3.315   3.330   3.333   3.337
  3.344   3.348   3.354   3.364   3.394   3.407   3.426   3.434
  3.442   3.448   3.464   3.479   3.487   3.500   3.544   3.561
  3.561   3.575   3.583   3.585   3.588   3.594   3.612   3.616
  3.618   3.645   3.695   3.738   3.846   3.853   3.907   3.913
  3.945   3.951   3.956   3.962   3.965   3.982   3.987   4.009
  4.057   4.058   4.078   4.084   4.101   4.106   4.114   4.122
  4.139   4.141   4.148   4.149   4.160   4.169   4.182   4.197
  4.206   4.220   4.226   4.252   4.259   4.268   4.275   4.282
  4.286   4.296   4.331   4.342   4.377   4.382   4.387   4.405
  4.428   4.432   4.457   4.466   4.473   4.475   4.477   4.481
  4.508   4.509   4.538   4.544   4.567   4.604   4.664   4.679
  4.683   4.711   4.712   4.728   4.777   4.779   4.787   4.801
 --------------------------------------------------------------
 
          Ground-State Mulliken Net Atomic Charges

     Atom                 Charge (a.u.)
  ----------------------------------------
      1 C                     0.268935
      2 C                    -0.128937
      3 N                    -0.458997
      4 C                    -0.052369
      5 C                     0.062384
      6 C                     0.009314
      7 C                    -0.011962
      8 C                     0.065603
      9 C                     0.265099
     10 N                    -0.496361
     11 N                    -0.560342
     12 C                     0.205598
     13 C                     0.265125
     14 S                     0.616766
     15 N                    -0.561635
     16 C                    -0.215236
     17 S                     0.299397
     18 C                    -0.092939
     19 C                    -0.190758
     20 S                     0.292617
     21 C                     0.134381
     22 C                     0.053219
     23 C                    -0.312305
     24 C                    -0.063386
     25 N                    -0.433456
     26 S                     0.257874
     27 C                     0.130652
     28 C                    -0.318498
     29 C                    -0.222028
     30 H                     0.124937
     31 H                     0.109011
     32 H                     0.104578
     33 H                     0.118358
     34 H                     0.121507
     35 H                     0.121611
     36 H                     0.121685
     37 H                     0.136424
     38 H                     0.091938
     39 C                    -0.186264
     40 H                     0.112986
     41 H                     0.098893
     42 H                     0.096052
     43 C                    -0.172967
     44 H                     0.090580
     45 C                    -0.155160
     46 H                     0.106608
     47 H                     0.083330
     48 H                     0.085504
     49 C                    -0.173767
     50 H                     0.097608
     51 C                    -0.327246
     52 H                     0.092651
     53 H                     0.096079
     54 H                     0.094987
     55 H                     0.099913
     56 C                     0.249059
     57 C                    -0.107482
     58 N                    -0.480052
     59 C                    -0.086564
     60 C                     0.098850
     61 C                     0.022045
     62 C                     0.043345
     63 C                     0.045787
     64 C                     0.262804
     65 N                    -0.505210
     66 N                    -0.561624
     67 C                     0.212246
     68 C                     0.289523
     69 S                     0.593007
     70 N                    -0.532598
     71 C                    -0.224974
     72 S                     0.310600
     73 C                    -0.103712
     74 C                    -0.224293
     75 S                     0.264410
     76 C                     0.149735
     77 C                     0.036928
     78 C                    -0.310925
     79 C                    -0.043459
     80 N                    -0.395565
     81 S                     0.253732
     82 C                     0.122766
     83 C                    -0.318381
     84 C                    -0.219465
     85 H                     0.091670
     86 H                     0.104990
     87 H                     0.111989
     88 H                     0.108768
     89 H                     0.127851
     90 H                     0.122302
     91 H                     0.116452
     92 H                     0.129895
     93 H                     0.104762
     94 C                    -0.184579
     95 H                     0.118064
     96 H                     0.090783
     97 H                     0.117841
     98 C                    -0.188369
     99 H                     0.085320
    100 C                    -0.169017
    101 H                     0.104889
    102 H                     0.086782
    103 H                     0.099802
    104 C                    -0.192352
    105 H                     0.081676
    106 C                    -0.319066
    107 H                     0.103518
    108 H                     0.103136
    109 H                     0.108880
    110 H                     0.095891
  ----------------------------------------
  Sum of atomic charges =     0.000000

 -----------------------------------------------------------------
                    Cartesian Multipole Moments
 -----------------------------------------------------------------
    Charge (ESU x 10^10)
                 0.0000
    Dipole Moment (Debye)
         X      -1.7176      Y      -1.2777      Z      -2.1440
       Tot       3.0298
    Quadrupole Moments (Debye-Ang)
        XX    -397.4182     XY       1.4779     YY    -427.6972
        XZ     -15.1597     YZ       1.6955     ZZ    -434.4836
    Octopole Moments (Debye-Ang^2)
       XXX    -505.4330    XXY     255.9068    XYY      18.3642
       YYY     -61.4649    XXZ    -538.5956    XYZ     -30.1214
       YYZ      -1.2331    XZZ      96.2510    YZZ      52.7290
       ZZZ    -136.5567
    Hexadecapole Moments (Debye-Ang^3)
      XXXX -162165.1586   XXXY    -790.5334   XXYY  -31991.9770
      XYYY     375.6794   YYYY  -16106.2659   XXXZ    -513.6832
      XXYZ    -669.6543   XYYZ    -155.2147   YYYZ      98.3638
      XXZZ  -28514.9024   XYZZ     328.6055   YYZZ   -5053.3295
      XZZZ   -1186.6844   YZZZ    -189.1816   ZZZZ  -13544.3530
 -----------------------------------------------------------------
Archival summary:
1\1\mn426\SP\ProcedureUnspecified\6-31G**\8105042\afmv_a\SatOct616:27:552018SatOct616:27:552018\0\\#,ProcedureUnspecified,6-31G**,\\0,1\S\N,1,1.62186\C,2,1.3238,1,102.744\C,3,1.36966,2,124.023,1,176.47,0\N,4,1.28809,3,122.967,2,-174.549,0\C,5,1.36334,4,118.447,3,-1.16526,0\H,6,1.08866,5,119.391,4,-178.846,0\C,6,1.37823,5,124.06,4,-4.05451,0\C,3,1.38278,2,117.103,1,2.07536,0\N,9,1.3035,3,115.103,2,-0.614389,0\C,4,1.51346,3,128.163,2,8.59658,0\C,11,1.39202,4,125.635,3,24.3913,0\C,12,1.37511,11,114.387,4,-178.106,0\C,13,1.36088,12,114.507,11,8.78378,0\C,14,1.42181,13,121.156,12,-169.081,0\N,15,1.25703,14,116.335,13,-53.7968,0\C,16,1.34394,15,113.995,14,-162.424,0\H,17,1.08177,16,120.058,15,173.572,0\C,17,1.37182,16,112.371,15,-0.545894,0\H,19,1.08207,17,127.067,16,177.136,0\C,13,1.44794,12,113.962,11,-171.624,0\H,21,1.08433,13,126.225,12,-174.635,0\C,21,1.40242,13,108.423,12,1.23118,0\H,23,1.08239,21,125.883,13,-172.493,0\C,8,1.53355,6,126.261,5,-174.503,0\C,25,1.42698,8,123.311,6,-130.33,0\H,26,1.08836,25,121.113,8,1.67772,0\N,26,1.34449,25,126.862,8,-178.066,0\C,28,1.36711,26,117.175,25,-4.45748,0\C,29,1.37956,28,121.342,26,-6.7282,0\H,30,1.08644,29,121.057,28,-177.07,0\C,30,1.38964,29,121.553,28,9.72092,0\H,32,1.08625,30,118.923,29,171.46,0\C,29,1.60013,28,118.101,26,-173.545,0\H,34,1.09655,29,102.646,28,22.095,0\H,34,1.09757,29,109.518,28,141.472,0\C,34,1.50733,29,110.989,28,-93.1306,0\H,37,1.09696,34,108.313,29,-67.5436,0\H,37,1.09698,34,112.314,29,53.5756,0\C,37,1.59093,34,107.25,29,168.388,0\H,40,1.09633,37,105.994,34,-67.0701,0\H,40,1.09665,37,114.737,34,50.3662,0\C,40,1.53921,37,111.864,34,173.812,0\H,43,1.09722,40,108.876,37,67.5176,0\H,43,1.09726,40,107.605,37,-49.4822,0\C,43,1.56491,40,115.405,37,-179.948,0\H,46,1.09613,43,107.338,40,60.8556,0\H,46,1.09724,43,112.657,40,-48.6315,0\C,46,1.55481,43,112.411,40,-172.023,0\H,49,1.09676,46,112.867,43,-178.983,0\H,49,1.09707,46,110.876,43,-56.8941,0\H,49,1.09771,46,108.662,43,62.2647,0\S,15,1.73396,14,123.427,13,149.975,0\S,11,1.73643,4,123.716,3,-144.892,0\S,23,1.73679,21,116.26,13,0.420738,0\H,39,2.41547,37,136.593,34,27.0767,0\C,56,1.08655,39,97.9072,37,131.146,0\C,57,1.38426,56,124.781,39,-92.783,0\H,58,1.08564,57,118.548,56,-14.6052,0\C,58,1.41252,57,119.406,56,170.699,0\C,57,1.42294,56,115.702,39,73.6301,0\N,61,1.2915,57,123.327,56,177.137,0\C,62,1.34778,61,118.7,57,10.3309,0\H,63,1.08852,62,114.004,61,-166.154,0\C,61,1.50136,57,121.126,56,4.97826,0\H,65,1.09697,61,111.296,57,-141.715,0\H,65,1.09737,61,100.542,57,-29.1315,0\C,60,1.51978,58,122.664,57,161.279,0\C,68,1.35423,60,121.061,58,63.0128,0\N,69,1.36514,68,123.602,60,5.33407,0\C,69,1.36591,68,124.876,60,-175.148,0\N,71,1.37782,69,118.639,68,-176.667,0\C,71,1.40485,69,115.719,68,0.291913,0\N,73,1.33699,71,121.556,69,-0.428399,0\C,74,1.29897,73,121.15,71,-2.5141,0\H,75,1.08866,74,113.432,73,172.074,0\C,73,1.4838,71,119.879,69,174.066,0\C,77,1.36311,73,124.058,71,165.872,0\C,78,1.428,77,112.434,73,166.465,0\C,79,1.36702,78,120.859,77,5.59206,0\C,79,1.37468,78,107.309,77,174.589,0\H,81,1.08359,79,121.659,78,-172.059,0\C,80,1.40005,79,125.455,78,-177.189,0\N,83,1.33233,80,121,79,15.7276,0\C,84,1.35426,83,113.583,80,157.427,0\H,85,1.08254,84,124.557,83,-176.991,0\C,81,1.41565,79,112.901,78,6.17849,0\H,87,1.08195,81,128.702,79,175.395,0\C,85,1.42262,84,114.04,83,0.948924,0\H,89,1.08257,85,127.343,84,169.552,0\C,65,1.55819,61,117.494,57,89.4034,0\H,91,1.09689,65,114.1,61,-39.9646,0\H,91,1.09709,65,112.467,61,-153.791,0\C,91,1.55654,65,109.144,61,81.9557,0\H,94,1.09653,91,118.864,65,36.1513,0\H,94,1.09668,91,106.81,65,-79.5292,0\C,94,1.51792,91,114.381,65,164.788,0\H,97,1.09669,94,101.628,91,55.9732,0\H,97,1.0975,94,114.647,91,-61.7149,0\C,97,1.46747,94,108.093,91,-178.444,0\H,100,1.09695,97,112.353,94,-52.616,0\H,100,1.09705,97,109.709,94,62.5287,0\C,100,1.57154,97,112.49,94,-174.893,0\H,103,1.09658,100,108.642,97,-50.3247,0\H,103,1.09689,100,114.915,97,-175.167,0\H,103,1.09706,100,117.997,97,63.1889,0\S,70,1.64736,69,106.976,68,173.868,0\S,78,1.73261,77,128.883,73,-8.17083,0\S,80,1.7419,79,104.884,78,-3.73535,0\S,83,1.7535,80,120.637,79,172.157,0\\\@

 Total job time:  98.92s(wall), 1079.13s(cpu) 
 Sat Oct  6 16:27:55 2018

        *************************************************************
        *                                                           *
        *  Thank you very much for using Q-Chem.  Have a nice day.  *
        *                                                           *
        *************************************************************


