
Running Job 1 of 1 ./10/89.qcin
qchem ./10/89.qcin_795.0 /tmpu/cab_g/afmv_a/scratch_qchem/qchem795/ 1
/tmpu/appuserlic/qchem4.4/serial-multicore/exe/qcprog.exe_s ./10/89.qcin_795.0 /tmpu/cab_g/afmv_a/scratch_qchem/qchem795/
Check license passed

                  Welcome to Q-Chem
     A Quantum Leap Into The Future Of Chemistry


 Q-Chem 4.4, Q-Chem, Inc., Pleasanton, CA (2016)

 Y. Shao,  Z. Gan,  E. Epifanovsky,  A. T. B. Gilbert,  M. Wormit,  
 J. Kussmann,  A. W. Lange,  A. Behn,  J. Deng,  X. Feng,  D. Ghosh,  
 M. Goldey,  P. R. Horn,  L. D. Jacobson,  I. Kaliman,  F. Rob,  
 R. Z. Khaliullin,  T. Kus,  A. Landau,  J. Liu,  E. I. Proynov,  Y. M. Rhee,  
 R. M. Richard,  M. A. Rohrdanz,  R. P. Steele,  E. J. Sundstrom,  
 H. L. Woodcock III,  P. M. Zimmerman,  D. Zuev,  B. Albrecht,  E. Alguire,  
 B. Austin,  S. A. Baeppler,  G. J. O. Beran,  Y. A. Bernard,  E. Berquist,  
 K. Brandhorst,  K. B. Bravaya,  S. T. Brown,  D. Casanova,  C.-M. Chang,  
 Y. Chen,  S. H. Chien,  K. D. Closser,  M. P. Coons,  D. L. Crittenden,  
 S. Dasgupta,  M. Diedenhofen,  R. A. DiStasio Jr.,  H. Do,  A. D. Dutoi,  
 R. G. Edgar,  P.-T. Fang,  S. Fatehi,  Q. Feng,  L. Fusti-Molnar,  
 A. Ghysels,  A. Golubeva-Zadorozhnaya,  J. Gomes,  A. Gunina,  
 M. W. D. Hanson-Heine,  P. H. P. Harbach,  A. W. Hauser,  J. E. Herr,  
 E. G. Hohenstein,  Z. C. Holden,  K. Hui,  T.-C. Jagau,  H. Ji,  B. Kaduk,  
 K. Khistyaev,  Jaehoon Kim,  Jihan Kim,  R. A. King,  P. Klunzinger,  
 K. Koh,  D. Kosenkov,  T. Kowalczyk,  C. M. Krauter,  A. Kunitsa,  
 K. U. Lao,  A. Laurent,  K. V. Lawler,  J. Lee,  D. Lefrancois,  S. Lehtola,  
 S. V. Levchenko,  C. Y. Lin,  Y.-S. Lin,  F. Liu,  E. Livshits,  
 R. C. Lochan,  A. Luenser,  P. Manohar,  S. F. Manzer,  S.-P. Mao,  Y. Mao,  
 N. Mardirossian,  A. V. Marenich,  L. A. Martinez-Martinez,  S. A. Maurer,  
 N. J. Mayhall,  J.-M. Mewes,  A. F. Morrison,  K. Nanda,  T. S. Nguyen-Beck,  
 C. M. Oana,  R. Olivares-Amaya,  D. P. O'Neill,  J. A. Parkhill,  
 T. M. Perrine,  R. Peverati,  P. A. Pieniazek,  F. Plasser,  A. Prociuk,  
 D. R. Rehn,  E. Rosta,  N. J. Russ,  N. Sergueev,  S. M. Sharada,  
 S. Sharma,  D. W. Small,  A. Sodt,  T. Stauch,  T. Stein,  D. Stuck,  
 Y.-C. Su,  A. J. W. Thom,  T. Tsuchimochi,  L. Vogt,  O. Vydrov,  T. Wang,  
 M. A. Watson,  J. Wenzel,  A. White,  C. F. Williams,  V. Vanovschi,  
 K. Yao,  S. Yeganeh,  S. R. Yost,  Z.-Q. You,  I. Y. Zhang,  X. Zhang,  
 Y. Zhao,  B. R. Brooks,  G. K. L. Chan,  D. M. Chipman,  C. J. Cramer,  
 W. A. Goddard III,  M. S. Gordon,  W. J. Hehre,  A. Klamt,  
 H. F. Schaefer III,  M. W. Schmidt,  C. D. Sherrill,  D. G. Truhlar,  
 A. Warshel,  X. Xu,  A. Aspuru-Guzik,  R. Baer,  A. T. Bell,  N. A. Besley,  
 J.-D. Chai,  A. Dreuw,  B. D. Dunietz,  T. R. Furlani,  S. R. Gwaltney,  
 C.-P. Hsu,  Y. Jung,  J. Kong,  D. S. Lambrecht,  W. Liang,  C. Ochsenfeld,  
 V. A. Rassolov,  L. V. Slipchenko,  J. E. Subotnik,  T. Van Voorhis,  
 J. M. Herbert,  A. I. Krylov,  P. M. W. Gill,  M. Head-Gordon

 Contributors to earlier versions of Q-Chem not listed above: 
 R. D. Adamson,  J. Baker,  E. F. C. Byrd,  A. K. Chakraborty,  C.-L. Cheng,  
 H. Dachsel,  R. J. Doerksen,  G. Hawkins,  A. Heyden,  S. Hirata,  
 G. Kedziora,  F. J. Keil,  C. Kelley,  P. P. Korambath,  W. Kurlancheek,  
 A. M. Lee,  M. S. Lee,  D. Liotard,  I. Lotan,  P. E. Maslen,  N. Nair,  
 D. Neuhauser,  R. Olson,  B. Peters,  J. Ritchie,  N. E. Schultz,  
 N. Shenvi,  A. C. Simmonett,  K. S. Thanthiriwatte,  Q. Wu,  W. Zhang

 Please cite Q-Chem as follows:
 Y. Shao et al., Mol. Phys. 113, 184-215 (2015)
 DOI: 10.1080/00268976.2014.952696

 Q-Chem 4.4.2 for Intel X86 Linux

 Parts of Q-Chem use Armadillo 5.200.1 (Boston Tea Smuggler).
 http://arma.sourceforge.net/

 Q-Chem begins on Sat Oct  6 16:47:49 2018  

Host: 
0

     Scratch files written to /tmpu/cab_g/afmv_a/scratch_qchem/qchem795//
 Dec716 11556_ 22328  22283 4050   
Processing $rem in /tmpu/appuserlic/qchem4.4/serial-multicore/config/preferences.
 MEM_TOTAL  2000 
FILE_GEOM_ORG=        593

Checking the input file for inconsistencies... 	...done.

--------------------------------------------------------------
User input:
--------------------------------------------------------------
$comment
SP
$end

$rem
MEM_STATIC 5000
MEM_TOTAL 20000
JOBTYPE SP
EXCHANGE B3LYP
BASIS 6-31g(d,p)
$end

$molecule
0 1
C          24.007000     22.007000     -1.331000
C          24.077000     23.260000     -0.668000
N          22.866000     21.323000     -1.517000
C          22.898000     23.819000     -0.150000
C          21.759000     21.825000     -0.908000
C          21.682000     23.063000     -0.295000
C          20.350000     23.640000      0.173000
C          20.253000     25.020000      0.112000
C          19.194000     22.993000      0.593000
N          19.096000     25.743000      0.325000
N          19.083000     21.674000      0.663000
C          18.027000     23.707000      0.895000
C          17.990000     25.145000      0.849000
S          17.655000     21.440000      1.440000
N          16.988000     22.922000      1.290000
C          16.751000     25.917000      1.102000
S          15.078000     25.274000      1.327000
C          16.758000     27.287000      1.419000
C          14.434000     26.905000      1.553000
S          18.116000     28.386000      1.788000
C          15.443000     27.821000      1.652000
C          13.069000     27.221000      1.604000
C          16.922000     29.609000      1.948000
C          15.560000     29.193000      1.950000
N          12.719000     28.472000      1.819000
S          11.844000     26.007000      1.563000
C          11.357000     28.556000      1.912000
C          10.705000     27.315000      1.750000
C          25.225000     21.228000     -1.767000
H          25.034000     23.712000     -0.424000
H          22.960000     24.695000      0.489000
H          20.862000     21.215000     -1.003000
H          21.118000     25.635000     -0.135000
H          17.433000     30.534000      2.181000
H          14.728000     29.868000      2.118000
H          10.945000     29.546000      2.055000
H           9.659000     27.124000      1.549000
H          25.971000     21.881000     -2.236000
C          24.893000     19.893000     -2.555000
H          25.717000     20.841000     -0.866000
H          24.232000     20.008000     -3.423000
H          24.394000     19.155000     -1.915000
C          26.193000     19.229000     -2.974000
H          26.814000     19.856000     -3.625000
C          25.949000     17.847000     -3.592000
H          26.847000     19.072000     -2.108000
H          25.173000     17.399000     -2.959000
H          26.828000     17.197000     -3.685000
C          25.382000     17.992000     -5.086000
H          24.314000     18.222000     -4.992000
C          25.479000     16.730000     -5.898000
H          25.816000     18.856000     -5.605000
H          26.464000     16.264000     -6.027000
H          25.043000     16.832000     -6.899000
H          24.805000     16.006000     -5.424000
C          20.719000     17.532000     -2.250000
C          20.825000     18.754000     -2.942000
N          19.782000     17.347000     -1.258000
C          19.792000     19.652000     -2.828000
C          18.865000     18.272000     -1.023000
C          18.740000     19.392000     -1.889000
C          17.456000     20.166000     -1.877000
C          16.242000     19.455000     -1.676000
C          17.344000     21.609000     -2.140000
N          15.069000     20.089000     -1.366000
N          18.344000     22.451000     -2.486000
C          16.100000     22.165000     -1.897000
C          14.938000     21.399000     -1.519000
S          17.602000     23.925000     -2.614000
N          16.130000     23.517000     -2.043000
C          13.606000     22.032000     -1.229000
S          13.036000     23.596000     -1.829000
C          12.594000     21.465000     -0.528000
C          11.550000     23.590000     -0.948000
S          12.593000     20.046000      0.413000
C          11.430000     22.369000     -0.365000
C          10.540000     24.607000     -1.017000
C          10.931000     20.534000      1.069000
C          10.517000     21.781000      0.549000
N          10.809000     25.527000     -1.956000
S           8.953000     24.677000     -0.283000
C           9.623000     26.306000     -2.148000
C           8.579000     26.085000     -1.286000
C          21.675000     16.326000     -2.368000
H          21.591000     18.961000     -3.684000
H          19.764000     20.536000     -3.459000
H          18.116000     18.145000     -0.242000
H          16.260000     18.395000     -1.429000
H          10.514000     19.726000      1.654000
H           9.552000     22.163000      0.861000
H           9.701000     27.043000     -2.937000
H           7.605000     26.548000     -1.204000
H          22.684000     16.633000     -2.668000
C          21.216000     15.438000     -3.594000
H          21.758000     15.688000     -1.480000
H          20.131000     15.303000     -3.514000
H          21.583000     14.404000     -3.616000
C          21.580000     16.119000     -4.949000
H          20.769000     16.832000     -5.145000
C          21.679000     15.069000     -6.127000
H          22.546000     16.615000     -4.793000
H          20.773000     14.468000     -6.276000
H          22.503000     14.395000     -5.862000
C          22.042000     15.614000     -7.515000
H          21.118000     16.048000     -7.917000
C          22.560000     14.598000     -8.681000
H          22.720000     16.461000     -7.354000
H          23.430000     14.111000     -8.223000
H          22.838000     15.218000     -9.542000
H          21.878000     13.749000     -8.816000
$end

--------------------------------------------------------------
 ----------------------------------------------------------------
             Standard Nuclear Orientation (Angstroms)
    I     Atom           X                Y                Z
 ----------------------------------------------------------------
    1      C       5.5054413748     3.8717644555     0.0310349858
    2      C       4.6576296489     5.0099722733     0.0177594155
    3      N       5.0622761736     2.6118373369     0.1742874214
    4      C       3.2759761809     4.8273975097     0.1867154748
    5      C       3.7390432041     2.4687283215     0.4516109115
    6      C       2.8018838102     3.4852479273     0.3990546429
    7      C       1.3080005119     3.1997153505     0.5129003227
    8      C       0.4890242392     4.0590522944    -0.2000848676
    9      C       0.6420452325     2.1726443239     1.1709076722
   10      N      -0.8703720737     3.8932540938    -0.3770018573
   11      N       1.2640116236     1.2258761827     1.8592171194
   12      C      -0.7481007711     2.0262215452     1.0763378109
   13      C      -1.5576027983     2.9687356278     0.3499063467
   14      S       0.0474285011     0.4358468850     2.6295730208
   15      N      -1.2396064820     0.9703412651     1.7801204266
   16      C      -3.0199429933     2.7985781942     0.1834082928
   17      S      -4.0255014073     1.3754467138     0.6593831509
   18      C      -3.8721553772     3.8526803934    -0.1908117041
   19      C      -5.4955720403     2.1610946876     0.0697878700
   20      S      -3.5487789194     5.5997890534    -0.3673478108
   21      C      -5.2551683868     3.4643870656    -0.2627374084
   22      C      -6.7392732855     1.5268310112    -0.0590484654
   23      C      -5.1966105378     5.7330941906    -0.8297823442
   24      C      -6.0176613614     4.5830332528    -0.6527530128
   25      N      -7.7689133417     2.2359474104    -0.4722327913
   26      S      -6.9996971815    -0.0967187818     0.4628398982
   27      C      -8.8951882389     1.4601227083    -0.4535275095
   28      C      -8.6606237387     0.1393299068    -0.0154466145
   29      C       7.0130597543     3.9582127599     0.0396670595
   30      H       5.0689482873     6.0150966982     0.0329537651
   31      H       2.6380895057     5.6943257777     0.3318945633
   32      H       3.4145013935     1.4472054855     0.6436986747
   33      H       0.8937709866     4.9410999254    -0.6956966584
   34      H      -5.3874816150     6.7737053791    -1.0572281318
   35      H      -7.0856627379     4.5750889459    -0.8408565691
   36      H      -9.8056117131     1.9256646265    -0.8066462147
   37      H      -9.2984995545    -0.7286802590    -0.1187461585
   38      H       7.3748795426     4.7109751114    -0.6711924786
   39      C       7.7434919708     2.5525009031    -0.0222680072
   40      H       7.3230090172     4.3296238214     1.0243595383
   41      H       7.4432616512     1.8995428817    -0.8511694353
   42      H       7.5653798666     1.9600748710     0.8835755084
   43      C       9.2453939760     2.7757859884    -0.0521199362
   44      H       9.5824700979     3.3660479982    -0.9126671155
   45      C      10.0161889974     1.4548563884     0.0592534300
   46      H       9.5640873020     3.3948767287     0.7949232854
   47      H       9.4662089951     0.8818348262     0.8160475144
   48      H      11.0830052576     1.5366560471     0.3021564617
   49      C       9.9689167276     0.6579172290    -1.3325810820
   50      H       8.9883333896     0.1692578358    -1.3776178973
   51      C      10.9974184548    -0.4335742738    -1.4431590919
   52      H       9.9891073609     1.3384320951    -2.1932232001
   53      H      12.0555450512    -0.1715120474    -1.3178056091
   54      H      10.9197908392    -0.9999154544    -2.3789649588
   55      H      10.7288340100    -1.1872488095    -0.6928490958
   56      C       5.7340120367    -1.6070177389     1.3006140969
   57      C       5.3576353021    -0.9525586192     0.1117458055
   58      N       4.8013648455    -1.9741497577     2.2448816954
   59      C       4.0282422874    -0.9553633216    -0.2335009845
   60      C       3.5084217248    -1.8413520618     1.9950780549
   61      C       3.0650634868    -1.4658950934     0.6979864862
   62      C       1.6427683327    -1.7496620159     0.3179485561
   63      C       1.0364144202    -2.9358267719     0.8129900739
   64      C       0.8409577299    -0.9291956335    -0.6028644938
   65      N      -0.3166249565    -3.1378618681     0.7634798217
   66      N       1.2554279997     0.1583737677    -1.2914043931
   67      C      -0.5026089300    -1.2537022978    -0.6752872460
   68      C      -1.0941456444    -2.3809470664     0.0024203215
   69      S      -0.0919556220     0.6475673070    -2.1189737600
   70      N      -1.1813834833    -0.3631500754    -1.4474930768
   71      C      -2.5629759751    -2.6919909194    -0.0668774496
   72      S      -3.6789035621    -2.2009816443    -1.3493015263
   73      C      -3.2505658226    -3.4721071172     0.8024170457
   74      C      -5.0990799944    -2.8348662648    -0.5971830589
   75      S      -2.7626071917    -4.1051536806     2.3058103486
   76      C      -4.6997444421    -3.5366019733     0.4951667533
   77      C      -6.4189548758    -2.8072947558    -1.1596064841
   78      C      -4.5209719813    -4.5940943417     2.6217443555
   79      C      -5.3664044304    -4.1917664281     1.5633582142
   80      N      -6.4248033339    -2.3439725304    -2.4188841783
   81      S      -7.9128026825    -3.5061773964    -0.5746220526
   82      C      -7.7100610722    -2.6350624755    -2.9789557720
   83      C      -8.6644048891    -3.1414447843    -2.1336003221
   84      C       7.1756456665    -1.8650812154     1.7878427079
   85      H       6.0675239139    -0.5896189261    -0.6261579403
   86      H       3.7162754516    -0.5952468872    -1.2099198736
   87      H       2.7551165804    -2.1248417204     2.7294185570
   88      H       1.5588975378    -3.5601402819     1.5356082532
   89      H      -4.5798022418    -5.2018839347     3.5139936542
   90      H      -6.4202430452    -4.4329328856     1.6392259531
   91      H      -7.8092193847    -2.3645546178    -4.0223958172
   92      H      -9.6975931001    -3.4153975617    -2.2986487887
   93      H       7.8785183233    -1.1208517209     1.3948764400
   94      C       7.6987295944    -3.2031015123     1.1257355493
   95      H       7.3130607767    -1.9300436260     2.8738325664
   96      H       6.9113437866    -3.9569844863     1.2420714905
   97      H       8.5606950217    -3.6839851728     1.6054182646
   98      C       8.0293076520    -2.9916834025    -0.3836691448
   99      H       7.0710618697    -3.0907174048    -0.9094669073
  100      C       9.0572897802    -4.0681813013    -0.9169514507
  101      H       8.4509293173    -1.9822980609    -0.4666414506
  102      H       8.7378255017    -5.1086279876    -0.7767684710
  103      H       9.9822700443    -3.9095075919    -0.3488747261
  104      C       9.4727137285    -3.9621467800    -2.3905584619
  105      H       8.6464839593    -4.3975112764    -2.9663519350
  106      C      10.8012935062    -4.7445357852    -2.9224223719
  107      H       9.4764629902    -2.8943768917    -2.6412922024
  108      H      11.5975621464    -4.3596767532    -2.2730590082
  109      H      10.9437822432    -4.4525211288    -3.9700050179
  110      H      10.7873811499    -5.8069017840    -2.6479502767
 ----------------------------------------------------------------
 Molecular Point Group                 C1    NOp =  1
 Largest Abelian Subgroup              C1    NOp =  1
 Nuclear Repulsion Energy = 12585.9370598747 hartrees
 There are      270 alpha and      270 beta electrons
 Requested basis set is 6-31G(d,p)
 There are 406 shells and 1262 basis functions

 Total QAlloc Memory Limit  20000 MB
 Mega-Array Size      4888 MB
 MEM_STATIC part      5000 MB
 A cutoff of  1.0D-08 yielded  16011 shell pairs
 There are    167134 function pairs
 
 -------------------------------------------------------
 OpenMP Integral Computing Module                       
 Release: version 1.0, May 2013, Q-Chem Inc. Pittsburgh 
 -------------------------------------------------------
 Integral Job Info:
 Integral job number is                      11
 Integral operator is                         1
 short-range coefficients                     0
 long-range coefficients              100000000
 Omega coefficients                           0
 if combine SR and LR in K                    0
 Integral screening is                        0
 Integral computing path is                   2
 max size of driver memory is            800000
 size of driver memory is                593474
 size of scratch memory is             15166112
 max col of scratch BK array               1296
 max len of scratch array in speh3          155
 max len of scratch index in speh4           18
 max int batch size is                      520
 min int batch size is                       52
 fixed nKL is                                52
 max L of basis functions is                  2
 order of int derivative is                   0
 number of shells is                        406
 number of basis is                        1262
 number of cartesian basis is              1262
 number of contracted shell pairs         16011
 number of primitive shell pairs          48781
 maxK2 (contraction) of shell pair           36
 max number of K2 of shell pair               1
 max number of CS2 of shell pair           1765
 max number of PS2 of shell pair           9480
 mem total for path MDJ                  373352
 -------------------------------------------------------
 Smallest overlap matrix eigenvalue = 3.82E-04

 Scale SEOQF with 1.000000e-02/1.000000e-02/1.000000e-01

 Standard Electronic Orientation quadrupole field applied
 Nucleus-field energy     =    -0.0000000081 hartrees
 Guess from superposition of atomic densities
 Warning:  Energy on first SCF cycle will be non-variational
 A restricted hybrid HF-DFT SCF calculation will be
 performed using Pulay DIIS extrapolation
 Exchange:     0.2000 Hartree-Fock + 0.0800 Slater + 0.7200 B88
 Correlation:  0.1900 VWN1RPA + 0.8100 LYP
 Using SG-1 standard quadrature grid
 SCF converges when DIIS error is below 1.0E-05
 using 16 threads for integral computing 
 -------------------------------------------------------
 OpenMP BLAS3 based DFT computing Module                
 Release: version 1.0, May 2013, Q-Chem Inc. Pittsburgh 
 -------------------------------------------------------
 ---------------------------------------
  Cycle       Energy         DIIS Error
 ---------------------------------------
    1   -5679.6526899948      2.12E-02
    2   -5662.5216730783      2.10E-03
    3   -5660.8093133102      3.44E-03
    4   -5663.2034160136      1.11E-03
    5   -5663.4585904081      3.74E-04
    6   -5663.4699219917      2.96E-04
    7   -5663.4852186993      1.28E-04
    8   -5663.4881828806      3.99E-05
    9   -5663.4884752531      1.76E-05
   10   -5663.4885405886      5.49E-06 Convergence criterion met
 ---------------------------------------
 SCF time:  CPU 1266.52 s  wall 113.52 s
 SCF   energy in the final basis set = -5663.4885405886
 Total energy in the final basis set = -5663.4885405886
 
 --------------------------------------------------------------
 
                    Orbital Energies (a.u.)
 --------------------------------------------------------------
 
 Alpha MOs
 -- Occupied --
-88.987 -88.981 -88.935 -88.921 -88.920 -88.915 -88.909 -88.906
-14.386 -14.384 -14.383 -14.376 -14.350 -14.348 -14.345 -14.335
-14.327 -14.326 -10.275 -10.267 -10.264 -10.258 -10.256 -10.254
-10.252 -10.249 -10.242 -10.240 -10.238 -10.237 -10.237 -10.236
-10.236 -10.235 -10.234 -10.231 -10.231 -10.230 -10.230 -10.229
-10.227 -10.226 -10.225 -10.222 -10.219 -10.216 -10.215 -10.215
-10.214 -10.213 -10.212 -10.206 -10.203 -10.202 -10.197 -10.195
-10.189 -10.187 -10.182 -10.180 -10.179 -10.178 -10.178 -10.177
-10.177 -10.177 -10.171 -10.169  -8.042  -8.037  -7.996  -7.983
 -7.978  -7.974  -7.969  -7.966  -6.007  -6.002  -6.001  -5.999
 -5.997  -5.994  -5.960  -5.956  -5.952  -5.947  -5.943  -5.943
 -5.940  -5.939  -5.939  -5.935  -5.934  -5.934  -5.931  -5.930
 -5.930  -5.927  -5.926  -5.922  -1.039  -1.033  -0.968  -0.961
 -0.955  -0.943  -0.935  -0.934  -0.908  -0.908  -0.899  -0.896
 -0.840  -0.837  -0.828  -0.825  -0.808  -0.806  -0.804  -0.803
 -0.800  -0.800  -0.796  -0.792  -0.780  -0.779  -0.764  -0.762
 -0.749  -0.747  -0.741  -0.736  -0.716  -0.713  -0.707  -0.705
 -0.692  -0.688  -0.673  -0.666  -0.652  -0.651  -0.642  -0.641
 -0.633  -0.630  -0.619  -0.619  -0.613  -0.604  -0.600  -0.595
 -0.593  -0.590  -0.584  -0.580  -0.580  -0.574  -0.566  -0.563
 -0.546  -0.542  -0.539  -0.533  -0.523  -0.518  -0.516  -0.507
 -0.506  -0.505  -0.503  -0.493  -0.487  -0.485  -0.476  -0.472
 -0.471  -0.466  -0.465  -0.463  -0.460  -0.453  -0.449  -0.447
 -0.445  -0.441  -0.436  -0.435  -0.435  -0.432  -0.431  -0.430
 -0.427  -0.425  -0.421  -0.419  -0.418  -0.415  -0.411  -0.411
 -0.409  -0.408  -0.405  -0.400  -0.398  -0.396  -0.395  -0.393
 -0.392  -0.390  -0.388  -0.385  -0.381  -0.379  -0.378  -0.376
 -0.374  -0.374  -0.373  -0.369  -0.366  -0.360  -0.358  -0.357
 -0.352  -0.351  -0.347  -0.345  -0.343  -0.341  -0.339  -0.337
 -0.334  -0.333  -0.331  -0.328  -0.327  -0.322  -0.320  -0.317
 -0.315  -0.311  -0.308  -0.307  -0.305  -0.301  -0.298  -0.296
 -0.294  -0.293  -0.289  -0.289  -0.286  -0.284  -0.282  -0.280
 -0.272  -0.268  -0.265  -0.263  -0.257  -0.253  -0.248  -0.246
 -0.240  -0.235  -0.229  -0.225  -0.198  -0.186
 -- Virtual --
 -0.112  -0.108  -0.075  -0.072  -0.042  -0.037  -0.028  -0.023
 -0.021  -0.016  -0.013  -0.009  -0.004  -0.003  -0.001   0.000
  0.005   0.016   0.019   0.025   0.027   0.030   0.038   0.045
  0.049   0.049   0.053   0.054   0.064   0.071   0.080   0.083
  0.092   0.095   0.100   0.101   0.103   0.112   0.113   0.113
  0.116   0.117   0.119   0.122   0.123   0.125   0.126   0.128
  0.130   0.130   0.134   0.135   0.139   0.141   0.142   0.146
  0.150   0.152   0.154   0.155   0.157   0.159   0.161   0.161
  0.163   0.170   0.172   0.174   0.174   0.177   0.182   0.184
  0.186   0.188   0.189   0.193   0.194   0.196   0.201   0.202
  0.205   0.208   0.211   0.213   0.215   0.219   0.220   0.223
  0.224   0.226   0.226   0.228   0.231   0.233   0.236   0.237
  0.245   0.247   0.250   0.251   0.253   0.255   0.258   0.260
  0.264   0.265   0.271   0.272   0.274   0.278   0.279   0.282
  0.285   0.287   0.288   0.290   0.293   0.299   0.300   0.304
  0.309   0.311   0.315   0.321   0.321   0.324   0.325   0.327
  0.331   0.334   0.337   0.339   0.341   0.346   0.347   0.352
  0.354   0.356   0.362   0.363   0.367   0.367   0.372   0.374
  0.379   0.385   0.389   0.392   0.398   0.402   0.405   0.410
  0.413   0.416   0.417   0.421   0.427   0.432   0.436   0.444
  0.445   0.454   0.455   0.459   0.465   0.467   0.470   0.474
  0.479   0.481   0.486   0.492   0.493   0.495   0.499   0.502
  0.504   0.506   0.507   0.512   0.513   0.515   0.517   0.521
  0.524   0.524   0.528   0.529   0.531   0.537   0.538   0.541
  0.543   0.544   0.546   0.548   0.551   0.551   0.553   0.555
  0.558   0.560   0.562   0.563   0.567   0.568   0.570   0.572
  0.573   0.575   0.577   0.577   0.582   0.584   0.585   0.587
  0.589   0.590   0.591   0.594   0.595   0.596   0.597   0.602
  0.604   0.607   0.609   0.612   0.613   0.614   0.619   0.621
  0.622   0.627   0.629   0.633   0.634   0.637   0.639   0.639
  0.641   0.645   0.647   0.648   0.653   0.655   0.656   0.657
  0.659   0.664   0.665   0.667   0.668   0.670   0.674   0.676
  0.681   0.683   0.691   0.695   0.696   0.701   0.702   0.706
  0.708   0.711   0.713   0.716   0.724   0.726   0.727   0.730
  0.733   0.737   0.739   0.741   0.745   0.746   0.751   0.754
  0.757   0.761   0.762   0.764   0.764   0.769   0.773   0.776
  0.780   0.781   0.783   0.787   0.788   0.793   0.795   0.798
  0.800   0.803   0.805   0.807   0.808   0.809   0.811   0.814
  0.817   0.820   0.823   0.824   0.826   0.828   0.829   0.832
  0.832   0.836   0.837   0.838   0.840   0.842   0.846   0.849
  0.850   0.851   0.855   0.856   0.859   0.860   0.863   0.864
  0.866   0.868   0.871   0.872   0.874   0.875   0.877   0.882
  0.884   0.887   0.889   0.891   0.893   0.894   0.897   0.898
  0.900   0.903   0.907   0.909   0.910   0.911   0.916   0.918
  0.922   0.923   0.926   0.929   0.932   0.934   0.938   0.942
  0.943   0.945   0.946   0.949   0.951   0.953   0.957   0.958
  0.962   0.964   0.966   0.967   0.971   0.975   0.978   0.981
  0.983   0.988   0.991   0.994   0.997   0.998   1.002   1.004
  1.008   1.010   1.013   1.015   1.017   1.020   1.022   1.025
  1.029   1.034   1.035   1.036   1.039   1.041   1.043   1.043
  1.047   1.049   1.053   1.056   1.056   1.059   1.063   1.071
  1.073   1.075   1.076   1.080   1.080   1.089   1.094   1.100
  1.101   1.102   1.111   1.118   1.121   1.126   1.131   1.139
  1.141   1.144   1.148   1.149   1.152   1.154   1.165   1.166
  1.168   1.172   1.174   1.179   1.182   1.192   1.195   1.197
  1.201   1.211   1.215   1.221   1.225   1.228   1.236   1.243
  1.245   1.252   1.257   1.266   1.271   1.276   1.278   1.283
  1.284   1.291   1.296   1.298   1.301   1.304   1.311   1.313
  1.314   1.318   1.324   1.329   1.329   1.331   1.334   1.344
  1.347   1.351   1.353   1.357   1.360   1.366   1.368   1.374
  1.376   1.378   1.384   1.391   1.392   1.397   1.401   1.402
  1.408   1.410   1.414   1.419   1.420   1.426   1.437   1.438
  1.449   1.450   1.455   1.459   1.462   1.467   1.474   1.479
  1.485   1.491   1.495   1.498   1.504   1.512   1.514   1.520
  1.527   1.529   1.533   1.544   1.546   1.553   1.560   1.570
  1.576   1.578   1.580   1.584   1.591   1.595   1.605   1.613
  1.620   1.632   1.636   1.640   1.645   1.650   1.651   1.658
  1.661   1.663   1.673   1.680   1.684   1.685   1.689   1.691
  1.699   1.703   1.705   1.707   1.712   1.714   1.717   1.725
  1.727   1.728   1.729   1.730   1.734   1.738   1.746   1.752
  1.753   1.759   1.762   1.767   1.769   1.772   1.774   1.785
  1.789   1.794   1.796   1.798   1.803   1.804   1.809   1.813
  1.814   1.818   1.820   1.822   1.827   1.834   1.838   1.841
  1.848   1.851   1.855   1.858   1.863   1.865   1.868   1.874
  1.875   1.880   1.884   1.885   1.889   1.890   1.896   1.899
  1.902   1.904   1.905   1.905   1.909   1.912   1.918   1.921
  1.927   1.931   1.936   1.941   1.946   1.950   1.957   1.958
  1.961   1.963   1.968   1.968   1.982   1.985   1.988   1.991
  1.995   1.997   2.001   2.010   2.017   2.020   2.023   2.026
  2.029   2.034   2.041   2.046   2.050   2.053   2.058   2.065
  2.072   2.076   2.079   2.081   2.090   2.092   2.096   2.100
  2.106   2.109   2.117   2.119   2.127   2.129   2.134   2.137
  2.139   2.145   2.147   2.149   2.155   2.158   2.160   2.163
  2.166   2.169   2.172   2.173   2.177   2.179   2.183   2.185
  2.187   2.193   2.200   2.204   2.206   2.212   2.216   2.219
  2.221   2.223   2.232   2.237   2.244   2.251   2.252   2.259
  2.261   2.266   2.270   2.274   2.276   2.279   2.279   2.286
  2.287   2.292   2.294   2.296   2.297   2.301   2.301   2.306
  2.309   2.311   2.312   2.319   2.322   2.327   2.328   2.337
  2.344   2.346   2.351   2.354   2.356   2.359   2.364   2.365
  2.372   2.376   2.377   2.383   2.392   2.393   2.395   2.397
  2.398   2.402   2.403   2.404   2.410   2.413   2.419   2.421
  2.423   2.426   2.427   2.429   2.434   2.436   2.442   2.443
  2.447   2.448   2.449   2.455   2.461   2.463   2.471   2.475
  2.479   2.481   2.491   2.492   2.492   2.496   2.501   2.505
  2.515   2.518   2.522   2.524   2.527   2.530   2.531   2.536
  2.539   2.541   2.549   2.553   2.561   2.562   2.563   2.567
  2.572   2.577   2.581   2.585   2.586   2.590   2.598   2.602
  2.608   2.613   2.616   2.618   2.623   2.632   2.639   2.644
  2.649   2.652   2.655   2.658   2.658   2.662   2.665   2.674
  2.679   2.680   2.683   2.691   2.697   2.701   2.703   2.706
  2.709   2.711   2.717   2.720   2.721   2.727   2.732   2.734
  2.746   2.759   2.763   2.765   2.773   2.774   2.788   2.792
  2.795   2.803   2.804   2.810   2.810   2.814   2.821   2.827
  2.832   2.836   2.842   2.863   2.864   2.865   2.870   2.875
  2.876   2.880   2.882   2.884   2.890   2.900   2.905   2.906
  2.915   2.917   2.919   2.922   2.925   2.930   2.940   2.944
  2.960   2.965   2.969   2.979   2.980   2.993   3.010   3.019
  3.031   3.032   3.038   3.046   3.053   3.054   3.080   3.115
  3.151   3.168   3.182   3.190   3.197   3.210   3.215   3.219
  3.237   3.252   3.255   3.257   3.260   3.266   3.277   3.294
  3.296   3.299   3.313   3.322   3.326   3.342   3.344   3.348
  3.353   3.354   3.361   3.369   3.392   3.409   3.424   3.428
  3.439   3.444   3.477   3.481   3.486   3.504   3.522   3.530
  3.535   3.547   3.565   3.585   3.591   3.592   3.597   3.603
  3.609   3.637   3.727   3.744   3.853   3.905   3.915   3.929
  3.944   3.951   3.954   3.963   3.968   3.980   3.995   4.012
  4.065   4.080   4.084   4.095   4.103   4.122   4.124   4.133
  4.149   4.150   4.154   4.156   4.162   4.174   4.185   4.187
  4.201   4.208   4.242   4.245   4.253   4.263   4.273   4.280
  4.286   4.300   4.320   4.345   4.369   4.379   4.388   4.394
  4.418   4.437   4.441   4.454   4.468   4.489   4.494   4.500
  4.507   4.524   4.533   4.536   4.577   4.595   4.654   4.660
  4.682   4.696   4.710   4.733   4.763   4.772   4.788   4.811
 --------------------------------------------------------------
 
          Ground-State Mulliken Net Atomic Charges

     Atom                 Charge (a.u.)
  ----------------------------------------
      1 C                     0.282148
      2 C                    -0.119551
      3 N                    -0.497653
      4 C                    -0.091842
      5 C                     0.079348
      6 C                     0.046455
      7 C                     0.074791
      8 C                     0.028119
      9 C                     0.233325
     10 N                    -0.514140
     11 N                    -0.565498
     12 C                     0.176763
     13 C                     0.280262
     14 S                     0.592276
     15 N                    -0.550126
     16 C                    -0.209546
     17 S                     0.342732
     18 C                    -0.131608
     19 C                    -0.249753
     20 S                     0.289567
     21 C                     0.180854
     22 C                     0.092365
     23 C                    -0.307449
     24 C                    -0.068435
     25 N                    -0.448658
     26 S                     0.289372
     27 C                     0.124050
     28 C                    -0.325690
     29 C                    -0.253881
     30 H                     0.091365
     31 H                     0.109255
     32 H                     0.132962
     33 H                     0.109642
     34 H                     0.128956
     35 H                     0.124847
     36 H                     0.111504
     37 H                     0.131343
     38 H                     0.104704
     39 C                    -0.156993
     40 H                     0.122793
     41 H                     0.106935
     42 H                     0.111352
     43 C                    -0.181894
     44 H                     0.086601
     45 C                    -0.185385
     46 H                     0.081077
     47 H                     0.094497
     48 H                     0.089688
     49 C                    -0.179893
     50 H                     0.095546
     51 C                    -0.326498
     52 H                     0.092128
     53 H                     0.099738
     54 H                     0.103801
     55 H                     0.104496
     56 C                     0.263968
     57 C                    -0.090368
     58 N                    -0.480056
     59 C                    -0.081802
     60 C                     0.083295
     61 C                     0.036748
     62 C                     0.002305
     63 C                     0.036233
     64 C                     0.244720
     65 N                    -0.512817
     66 N                    -0.577317
     67 C                     0.205281
     68 C                     0.315436
     69 S                     0.618973
     70 N                    -0.549707
     71 C                    -0.207957
     72 S                     0.361756
     73 C                    -0.104004
     74 C                    -0.209487
     75 S                     0.259833
     76 C                     0.120580
     77 C                     0.066399
     78 C                    -0.301146
     79 C                    -0.095033
     80 N                    -0.425524
     81 S                     0.258479
     82 C                     0.116823
     83 C                    -0.314562
     84 C                    -0.231640
     85 H                     0.103660
     86 H                     0.125770
     87 H                     0.104795
     88 H                     0.118141
     89 H                     0.139144
     90 H                     0.115099
     91 H                     0.119786
     92 H                     0.143454
     93 H                     0.105859
     94 C                    -0.192246
     95 H                     0.120584
     96 H                     0.106828
     97 H                     0.092770
     98 C                    -0.188828
     99 H                     0.101723
    100 C                    -0.179772
    101 H                     0.100200
    102 H                     0.093303
    103 H                     0.088793
    104 C                    -0.192835
    105 H                     0.090078
    106 C                    -0.326741
    107 H                     0.093438
    108 H                     0.105354
    109 H                     0.112588
    110 H                     0.108482
  ----------------------------------------
  Sum of atomic charges =     0.000000

 -----------------------------------------------------------------
                    Cartesian Multipole Moments
 -----------------------------------------------------------------
    Charge (ESU x 10^10)
                 0.0000
    Dipole Moment (Debye)
         X      -2.3984      Y       0.5146      Z      -0.4787
       Tot       2.4993
    Quadrupole Moments (Debye-Ang)
        XX    -389.6899     XY      28.6874     YY    -425.3260
        XZ      -1.8491     YZ      -2.6165     ZZ    -445.0631
    Octopole Moments (Debye-Ang^2)
       XXX    -575.8101    XXY    -135.3629    XYY     -27.0513
       YYY     168.6072    XXZ    -115.8733    XYZ      26.6243
       YYZ      20.5457    XZZ     -53.6085    YZZ     -34.4135
       ZZZ      -4.0175
    Hexadecapole Moments (Debye-Ang^3)
      XXXX  -79295.8058   XXXY    2082.5297   XXYY  -17192.1236
      XYYY     273.9728   YYYY  -22732.6311   XXXZ    1289.1870
      XXYZ      22.9575   XYYZ     -10.2929   YYYZ    -291.8252
      XXZZ  -15160.4795   XYZZ     294.8101   YYZZ   -4798.8480
      XZZZ      13.6693   YZZZ     -71.6863   ZZZZ   -4970.9691
 -----------------------------------------------------------------
Archival summary:
1\1\mn426\SP\ProcedureUnspecified\6-31G**\8105042\afmv_a\SatOct616:49:472018SatOct616:49:472018\0\\#,ProcedureUnspecified,6-31G**,\\0,1\S\C,1,1.76804\C,2,1.36636,1,111.021\C,2,1.40203,1,124.555,3,-179.112,0\N,4,1.31671,2,118.612,1,-177.913,0\C,5,1.36775,4,109.521,2,176.405,0\H,6,1.0818,5,116.387,4,177.954,0\C,3,1.40886,2,136.845,1,172.831,0\H,8,1.08447,3,125.113,2,4.64937,0\C,6,1.41118,5,113.47,4,0.321682,0\H,10,1.08213,6,128.546,5,164.378,0\C,8,1.42412,3,111.321,2,-177.901,0\H,12,1.08214,8,134.508,3,175.501,0\C,3,1.43829,2,114.489,1,-5.93476,0\C,14,1.40621,3,113.184,2,-1.3218,0\C,15,1.48159,14,122.818,3,178.71,0\N,16,1.36214,15,121.061,14,29.8066,0\C,17,1.38085,16,120.651,15,-178.987,0\H,18,1.08971,17,113.864,16,169.37,0\C,18,1.38475,17,125.008,16,-11.6775,0\C,20,1.38973,18,114.772,17,5.55582,0\N,21,1.32551,20,123.291,18,-177.317,0\C,21,1.40103,20,121.383,18,-1.37556,0\N,23,1.3608,21,113.864,20,-179.972,0\C,20,1.52518,18,115.13,17,-171.577,0\C,25,1.3836,20,121.538,18,147.941,0\H,26,1.08891,25,119.607,20,4.08235,0\N,26,1.35953,25,125.041,20,-170.351,0\C,28,1.34325,26,116.206,25,-10.0771,0\C,29,1.41932,28,123.788,26,6.66342,0\H,30,1.08613,29,121.05,28,-171.73,0\C,30,1.40387,29,118.846,28,-1.1846,0\H,32,1.08607,30,119.362,29,-170.603,0\C,29,1.51012,28,112.486,26,-166.969,0\H,34,1.09676,29,111.404,28,-142.465,0\H,34,1.0971,29,107.852,28,102.996,0\C,34,1.58537,29,114.141,28,-9.36512,0\H,37,1.09693,34,111.827,29,66.3098,0\H,37,1.09707,34,115.542,29,-53.6565,0\C,37,1.5187,34,109.029,29,-178.217,0\H,40,1.0965,37,110.809,34,-54.5351,0\H,40,1.09662,37,113.487,34,59.8925,0\C,40,1.53342,37,111.656,34,-173.088,0\H,43,1.09707,40,104.362,37,41.1802,0\H,43,1.09717,40,116.143,37,164.915,0\C,43,1.60454,40,110.49,37,-75.7516,0\H,46,1.09652,43,106.458,40,79.236,0\H,46,1.09737,43,111.824,40,-35.0329,0\C,46,1.50379,43,113.837,40,-163.662,0\H,49,1.09659,46,112.904,43,-177.186,0\H,49,1.09687,46,106.317,43,-65.9025,0\H,49,1.09728,46,118.541,43,56.8658,0\S,24,1.63209,23,103.796,21,-7.8366,0\S,12,1.71667,8,117.208,3,7.18229,0\S,4,1.72514,2,122.131,1,-4.56328,0\H,50,2.39604,49,122.985,46,86.8884,0\C,56,1.09682,50,138.31,49,79.8193,0\H,57,1.09715,56,105.599,50,166.94,0\C,57,1.53471,56,106.719,50,-80.7608,0\H,59,1.09703,57,105.01,56,83.8052,0\H,59,1.09738,57,105.484,56,-161.723,0\C,59,1.58113,57,116.923,56,-33.2961,0\H,62,1.09705,59,110.552,57,61.4362,0\H,62,1.0975,59,110.16,57,-63.4979,0\C,62,1.55958,59,111.836,57,179.579,0\H,65,1.09629,62,110.375,59,83.7364,0\H,65,1.09742,62,108.418,59,-27.7945,0\C,65,1.58187,62,111.132,59,-157.162,0\H,68,1.09651,65,102.247,62,44.4043,0\H,68,1.09658,65,108.843,62,158.889,0\C,68,1.54347,65,108.551,62,-73.9218,0\N,71,1.37705,68,111.812,65,-100.954,0\C,72,1.32353,71,120.362,68,179.11,0\H,73,1.08954,72,121.473,71,179.922,0\C,71,1.40833,68,126.427,65,85.4276,0\H,75,1.08636,71,123.643,68,-2.8123,0\C,75,1.3735,71,118.029,68,-172.4,0\H,77,1.08646,75,120.208,71,170.788,0\C,73,1.42126,72,120.231,71,-7.30149,0\C,79,1.49929,73,118.507,72,-160.404,0\C,80,1.42117,79,118.322,73,35.2515,0\H,81,1.08855,80,120.341,79,-6.59592,0\N,81,1.36894,80,122.16,79,-165.72,0\C,83,1.32539,81,121.085,80,-14.7218,0\C,84,1.44218,83,118.398,81,5.9322,0\N,85,1.36019,84,125.019,83,177.498,0\C,85,1.3841,84,123.836,83,-1.49561,0\N,87,1.35229,85,117.351,84,179.964,0\C,84,1.503,83,118.789,81,-176.939,0\C,89,1.35537,84,125.825,83,-16.5184,0\C,90,1.48279,89,112.827,84,-177.501,0\C,91,1.35836,90,115.562,89,-0.911616,0\C,91,1.4194,90,108.854,89,170.897,0\H,93,1.08374,91,127.743,90,177.676,0\C,93,1.41308,91,114.461,90,-0.575589,0\H,95,1.08119,93,138.211,91,169.988,0\C,92,1.43497,91,126.549,90,-175.383,0\N,97,1.34182,92,112.239,91,162.451,0\C,98,1.43189,97,107.506,92,-167.302,0\H,99,1.08249,98,114.108,97,176.069,0\C,99,1.37179,98,117.287,97,-7.31406,0\H,101,1.08156,99,131.609,98,-178.311,0\S,86,1.63073,85,107.829,84,174.67,0\C,57,1.63099,56,112.934,50,53.2269,0\H,104,1.09682,57,106.832,56,47.9154,0\H,104,1.09719,57,103.292,56,-70.5635,0\H,104,1.09734,57,111.871,56,-179.052,0\S,90,1.70266,89,129.414,84,-10.7257,0\S,92,1.72754,91,107.337,90,-5.07034,0\S,97,1.74992,92,130.278,91,-6.29733,0\\\@

 Total job time:  117.78s(wall), 1278.18s(cpu) 
 Sat Oct  6 16:49:47 2018

        *************************************************************
        *                                                           *
        *  Thank you very much for using Q-Chem.  Have a nice day.  *
        *                                                           *
        *************************************************************


