
Running Job 1 of 1 ./10/93.qcin
qchem ./10/93.qcin_1034.0 /tmpu/cab_g/afmv_a/scratch_qchem/qchem1034/ 1
/tmpu/appuserlic/qchem4.4/serial-multicore/exe/qcprog.exe_s ./10/93.qcin_1034.0 /tmpu/cab_g/afmv_a/scratch_qchem/qchem1034/
Check license passed

                  Welcome to Q-Chem
     A Quantum Leap Into The Future Of Chemistry


 Q-Chem 4.4, Q-Chem, Inc., Pleasanton, CA (2016)

 Y. Shao,  Z. Gan,  E. Epifanovsky,  A. T. B. Gilbert,  M. Wormit,  
 J. Kussmann,  A. W. Lange,  A. Behn,  J. Deng,  X. Feng,  D. Ghosh,  
 M. Goldey,  P. R. Horn,  L. D. Jacobson,  I. Kaliman,  F. Rob,  
 R. Z. Khaliullin,  T. Kus,  A. Landau,  J. Liu,  E. I. Proynov,  Y. M. Rhee,  
 R. M. Richard,  M. A. Rohrdanz,  R. P. Steele,  E. J. Sundstrom,  
 H. L. Woodcock III,  P. M. Zimmerman,  D. Zuev,  B. Albrecht,  E. Alguire,  
 B. Austin,  S. A. Baeppler,  G. J. O. Beran,  Y. A. Bernard,  E. Berquist,  
 K. Brandhorst,  K. B. Bravaya,  S. T. Brown,  D. Casanova,  C.-M. Chang,  
 Y. Chen,  S. H. Chien,  K. D. Closser,  M. P. Coons,  D. L. Crittenden,  
 S. Dasgupta,  M. Diedenhofen,  R. A. DiStasio Jr.,  H. Do,  A. D. Dutoi,  
 R. G. Edgar,  P.-T. Fang,  S. Fatehi,  Q. Feng,  L. Fusti-Molnar,  
 A. Ghysels,  A. Golubeva-Zadorozhnaya,  J. Gomes,  A. Gunina,  
 M. W. D. Hanson-Heine,  P. H. P. Harbach,  A. W. Hauser,  J. E. Herr,  
 E. G. Hohenstein,  Z. C. Holden,  K. Hui,  T.-C. Jagau,  H. Ji,  B. Kaduk,  
 K. Khistyaev,  Jaehoon Kim,  Jihan Kim,  R. A. King,  P. Klunzinger,  
 K. Koh,  D. Kosenkov,  T. Kowalczyk,  C. M. Krauter,  A. Kunitsa,  
 K. U. Lao,  A. Laurent,  K. V. Lawler,  J. Lee,  D. Lefrancois,  S. Lehtola,  
 S. V. Levchenko,  C. Y. Lin,  Y.-S. Lin,  F. Liu,  E. Livshits,  
 R. C. Lochan,  A. Luenser,  P. Manohar,  S. F. Manzer,  S.-P. Mao,  Y. Mao,  
 N. Mardirossian,  A. V. Marenich,  L. A. Martinez-Martinez,  S. A. Maurer,  
 N. J. Mayhall,  J.-M. Mewes,  A. F. Morrison,  K. Nanda,  T. S. Nguyen-Beck,  
 C. M. Oana,  R. Olivares-Amaya,  D. P. O'Neill,  J. A. Parkhill,  
 T. M. Perrine,  R. Peverati,  P. A. Pieniazek,  F. Plasser,  A. Prociuk,  
 D. R. Rehn,  E. Rosta,  N. J. Russ,  N. Sergueev,  S. M. Sharada,  
 S. Sharma,  D. W. Small,  A. Sodt,  T. Stauch,  T. Stein,  D. Stuck,  
 Y.-C. Su,  A. J. W. Thom,  T. Tsuchimochi,  L. Vogt,  O. Vydrov,  T. Wang,  
 M. A. Watson,  J. Wenzel,  A. White,  C. F. Williams,  V. Vanovschi,  
 K. Yao,  S. Yeganeh,  S. R. Yost,  Z.-Q. You,  I. Y. Zhang,  X. Zhang,  
 Y. Zhao,  B. R. Brooks,  G. K. L. Chan,  D. M. Chipman,  C. J. Cramer,  
 W. A. Goddard III,  M. S. Gordon,  W. J. Hehre,  A. Klamt,  
 H. F. Schaefer III,  M. W. Schmidt,  C. D. Sherrill,  D. G. Truhlar,  
 A. Warshel,  X. Xu,  A. Aspuru-Guzik,  R. Baer,  A. T. Bell,  N. A. Besley,  
 J.-D. Chai,  A. Dreuw,  B. D. Dunietz,  T. R. Furlani,  S. R. Gwaltney,  
 C.-P. Hsu,  Y. Jung,  J. Kong,  D. S. Lambrecht,  W. Liang,  C. Ochsenfeld,  
 V. A. Rassolov,  L. V. Slipchenko,  J. E. Subotnik,  T. Van Voorhis,  
 J. M. Herbert,  A. I. Krylov,  P. M. W. Gill,  M. Head-Gordon

 Contributors to earlier versions of Q-Chem not listed above: 
 R. D. Adamson,  J. Baker,  E. F. C. Byrd,  A. K. Chakraborty,  C.-L. Cheng,  
 H. Dachsel,  R. J. Doerksen,  G. Hawkins,  A. Heyden,  S. Hirata,  
 G. Kedziora,  F. J. Keil,  C. Kelley,  P. P. Korambath,  W. Kurlancheek,  
 A. M. Lee,  M. S. Lee,  D. Liotard,  I. Lotan,  P. E. Maslen,  N. Nair,  
 D. Neuhauser,  R. Olson,  B. Peters,  J. Ritchie,  N. E. Schultz,  
 N. Shenvi,  A. C. Simmonett,  K. S. Thanthiriwatte,  Q. Wu,  W. Zhang

 Please cite Q-Chem as follows:
 Y. Shao et al., Mol. Phys. 113, 184-215 (2015)
 DOI: 10.1080/00268976.2014.952696

 Q-Chem 4.4.2 for Intel X86 Linux

 Parts of Q-Chem use Armadillo 5.200.1 (Boston Tea Smuggler).
 http://arma.sourceforge.net/

 Q-Chem begins on Sat Oct  6 16:55:51 2018  

Host: 
0

     Scratch files written to /tmpu/cab_g/afmv_a/scratch_qchem/qchem1034//
 Dec716 11556_ 22328  22283 4050   
Processing $rem in /tmpu/appuserlic/qchem4.4/serial-multicore/config/preferences.
 MEM_TOTAL  2000 
FILE_GEOM_ORG=        593

Checking the input file for inconsistencies... 	...done.

--------------------------------------------------------------
User input:
--------------------------------------------------------------
$comment
SP
$end

$rem
MEM_STATIC 5000
MEM_TOTAL 20000
JOBTYPE SP
EXCHANGE B3LYP
BASIS 6-31g(d,p)
$end

$molecule
0 1
C          11.480000     11.105000      1.123000
C          10.387000     11.481000      0.262000
N          11.427000     11.406000      2.452000
C           9.192000     11.945000      0.856000
C          10.320000     11.984000      2.967000
C           9.156000     12.212000      2.246000
C           7.897000     12.739000      2.892000
C           7.040000     13.656000      2.264000
C           7.354000     12.082000      4.027000
N           5.763000     13.923000      2.703000
N           7.967000     11.115000      4.655000
C           6.171000     12.431000      4.618000
C           5.350000     13.346000      3.858000
S           6.964000     10.663000      5.840000
N           5.671000     11.595000      5.557000
C           4.017000     13.807000      4.336000
S           2.528000     13.904000      3.403000
C           3.753000     14.101000      5.676000
C           1.599000     14.423000      4.824000
S           4.875000     14.205000      7.035000
C           2.450000     14.524000      5.890000
C           0.202000     14.823000      4.815000
C           3.453000     14.776000      7.993000
C           2.258000     14.899000      7.286000
N          -0.393000     14.546000      3.647000
S          -0.544000     16.001000      5.767000
C          -1.578000     15.253000      3.564000
C          -1.715000     16.200000      4.552000
C          12.771000     10.475000      0.673000
H          10.462000     11.299000     -0.806000
H           8.327000     12.156000      0.234000
H          10.322000     12.250000      4.023000
H           7.261000     14.071000      1.281000
H           3.653000     14.964000      9.040000
H           1.276000     15.156000      7.668000
H          -2.192000     15.185000      2.676000
H          -2.543000     16.885000      4.679000
H          12.787000     10.526000     -0.423000
C          12.809000      8.953000      1.143000
H          13.651000     10.992000      1.076000
H          12.005000      8.410000      0.631000
H          12.726000      8.837000      2.231000
C          14.139000      8.259000      0.632000
H          14.415000      8.756000     -0.306000
C          13.994000      6.771000      0.254000
H          14.920000      8.416000      1.386000
H          13.280000      6.730000     -0.577000
H          13.540000      6.270000      1.117000
C          15.276000      6.109000     -0.214000
H          15.775000      6.671000     -1.012000
C          15.017000      4.571000     -0.471000
H          15.996000      6.167000      0.612000
H          15.904000      3.927000     -0.523000
H          14.346000      4.493000     -1.335000
H          14.447000      4.132000      0.357000
C          14.253000      8.128000     -3.465000
C          13.014000      8.702000     -3.215000
N          15.417000      8.775000     -3.470000
C          12.973000     10.111000     -3.189000
C          15.331000     10.146000     -3.430000
C          14.169000     10.900000     -3.285000
C          14.284000     12.406000     -3.402000
C          15.261000     13.020000     -4.135000
C          13.329000     13.231000     -2.784000
N          15.413000     14.341000     -4.160000
N          12.180000     12.806000     -2.190000
C          13.480000     14.620000     -2.848000
C          14.599000     15.189000     -3.507000
S          11.494000     14.180000     -1.562000
N          12.545000     15.275000     -2.108000
C          14.707000     16.588000     -3.813000
S          13.452000     17.960000     -3.590000
C          15.824000     17.175000     -4.393000
C          14.493000     19.092000     -4.493000
S          17.481000     16.427000     -4.554000
C          15.735000     18.470000     -4.687000
C          14.214000     20.458000     -4.928000
C          17.990000     17.948000     -5.346000
C          16.984000     18.875000     -5.384000
N          15.204000     21.277000     -5.154000
S          12.630000     21.163000     -4.936000
C          14.798000     22.595000     -5.140000
C          13.430000     22.719000     -5.121000
C          14.308000      6.675000     -3.827000
H          12.083000      8.143000     -3.232000
H          11.980000     10.551000     -3.187000
H          16.270000     10.681000     -3.562000
H          15.968000     12.519000     -4.795000
H          18.967000     18.056000     -5.798000
H          17.061000     19.889000     -5.760000
H          15.578000     23.343000     -5.193000
H          12.883000     23.653000     -5.135000
H          15.289000      6.445000     -4.262000
C          13.234000      6.154000     -4.758000
H          14.139000      6.075000     -2.925000
H          13.111000      6.953000     -5.500000
H          12.216000      6.071000     -4.356000
C          13.467000      4.692000     -5.237000
H          14.266000      4.177000     -4.691000
C          13.933000      4.666000     -6.710000
H          12.547000      4.125000     -5.051000
H          14.029000      3.603000     -6.963000
H          14.951000      5.074000     -6.721000
C          13.051000      5.237000     -7.873000
H          12.212000      4.532000     -7.846000
C          13.825000      5.443000     -9.159000
H          12.681000      6.235000     -7.605000
H          13.211000      5.847000     -9.973000
H          14.310000      4.474000     -9.328000
H          14.592000      6.204000     -8.968000
$end

--------------------------------------------------------------
 ----------------------------------------------------------------
             Standard Nuclear Orientation (Angstroms)
    I     Atom           X                Y                Z
 ----------------------------------------------------------------
    1      C       0.1231195689     2.1839377347    -1.6437156103
    2      C      -0.2234519110     1.7024268329    -0.3301778451
    3      N      -0.7664711484     2.0496474511    -2.6685304597
    4      C      -1.5598704135     1.3134996392    -0.0875294901
    5      C      -1.9938604080     1.5379676025    -2.4309229308
    6      C      -2.4714930358     1.2205262130    -1.1668742620
    7      C      -3.8949265729     0.7754115327    -0.9305780781
    8      C      -4.2432806624    -0.2137044196     0.0021711171
    9      C      -4.9733504348     1.5669187973    -1.4051739318
   10      N      -5.5324111724    -0.4264682357     0.4353143806
   11      N      -4.8115321292     2.6052394353    -2.1803817031
   12      C      -6.2897895703     1.2917561697    -1.1564883255
   13      C      -6.5279340023     0.2883484106    -0.1439044531
   14      S      -6.2954561395     3.1987369149    -2.4258776776
   15      N      -7.1993226975     2.2367013072    -1.4888212573
   16      C      -7.8997389421    -0.1121909930     0.2751580641
   17      S      -8.4892727180    -0.3264252345     1.9194124899
   18      C      -8.9602272778    -0.2385289426    -0.6254723885
   19      C     -10.1359541591    -0.6671275961     1.3501980028
   20      S      -8.9368425303    -0.1716428544    -2.3894339541
   21      C     -10.1417882593    -0.6339841318    -0.0171444832
   22      C     -11.2506061995    -1.0675176150     2.1921770177
   23      C     -10.6845377890    -0.6220787974    -2.2969258787
   24      C     -11.1870535896    -0.8336471071    -1.0140697993
   25      N     -10.9683256940    -0.9382075604     3.4954707782
   26      S     -12.5134456271    -2.1198901965     1.8071412665
   27      C     -11.8950157264    -1.6520384744     4.2321213127
   28      C     -12.6875492464    -2.4697065120     3.4607383986
   29      C       1.4576385737     2.7555722585    -2.0416779166
   30      H       0.5121559506     1.7509720413     0.4672539304
   31      H      -1.8644419079     1.0256837208     0.9144825867
   32      H      -2.6683441266     1.4047128060    -3.2754410613
   33      H      -3.4920167422    -0.7468024435     0.5842054968
   34      H     -11.1930358662    -0.6787139287    -3.2507472285
   35      H     -12.2098977923    -1.0430457675    -0.7204051302
   36      H     -11.8173530507    -1.6954988887     5.3101953830
   37      H     -13.4644849148    -3.1351147861     3.8136417788
   38      H       2.1468706290     2.5693444504    -1.2084004254
   39      C       1.3112780333     4.3241019291    -2.2806784701
   40      H       1.8544895734     2.2939070662    -2.9546250861
   41      H       1.0433841753     4.7982047089    -1.3283820692
   42      H       0.5796965550     4.5737269616    -3.0595012251
   43      C       2.7189750523     4.9517602685    -2.6495837582
   44      H       3.4789554590     4.3429548664    -2.1447919558
   45      C       2.9538906252     6.3812901816    -2.1210840883
   46      H       2.8480280502     4.8906016907    -3.7371181035
   47      H       2.9160906459     6.3179236580    -1.0271947679
   48      H       2.1019345928     6.9844827202    -2.4560701780
   49      C       4.2950033229     6.9824356964    -2.4963610553
   50      H       5.1370533863     6.3268327633    -2.2457907361
   51      C       4.3696521326     8.4763647931    -1.9853058631
   52      H       4.3392946825     7.0283242237    -3.5917936267
   53      H       5.1429156058     9.1104701001    -2.4371720608
   54      H       4.3887065192     8.4457018805    -0.8891682275
   55      H       3.4442208001     9.0135070095    -2.2266771292
   56      C       5.3621806548     4.5748777787     0.4628091688
   57      C       4.1966929977     4.0341470803     0.9884952281
   58      N       6.2240549775     3.9341941386    -0.3247358300
   59      C       4.0412923707     2.6391310600     0.8565143655
   60      C       6.0277490264     2.5785428517    -0.4356888012
   61      C       4.9738312798     1.8463306115     0.1055206026
   62      C       5.0215454002     0.3376247089    -0.0228533132
   63      C       6.1921544370    -0.3607287946    -0.1267324117
   64      C       3.8299607804    -0.4061519667     0.0158293790
   65      N       6.2256829799    -1.6744086163    -0.3314057192
   66      N       2.5971081415     0.0871619427     0.3164583158
   67      C       3.8817518500    -1.7921374095    -0.1646700319
   68      C       5.1206047074    -2.4364392339    -0.4102749112
   69      S       1.5673614103    -1.1997023979     0.1255189577
   70      N       2.6429476326    -2.3520883144    -0.2163333171
   71      C       5.2883763338    -3.8623714146    -0.3775472869
   72      S       4.0664210363    -5.1983341563     0.1011664100
   73      C       6.4752383762    -4.5147607171    -0.6848007496
   74      C       5.3530920909    -6.4316366480     0.0382652087
   75      S       7.9247810252    -3.7896491629    -1.5239153680
   76      C       6.4897974895    -5.8363391499    -0.5279553540
   77      C       5.3015915961    -7.8414399236     0.4161863951
   78      C       8.6978950081    -5.3961180254    -1.3778381165
   79      C       7.8661465845    -6.3223863312    -0.8094803194
   80      N       6.1518796798    -8.6804460208    -0.1082332304
   81      S       4.0172210121    -8.5446755971     1.3446242176
   82      C       5.7261257759    -9.9872615532     0.0063214614
   83      C       4.6377204778   -10.1102597330     0.8354211869
   84      C       5.7405137040     5.9719938225     0.8503770518
   85      H       3.5235427684     4.5851768916     1.6386997466
   86      H       3.2319209522     2.2010902649     1.4333082359
   87      H       6.8014985227     2.0329008995    -0.9732356149
   88      H       7.1916920789     0.0559237162    -0.0093646663
   89      H       9.7325215589    -5.5575845411    -1.6498187493
   90      H       8.0825174189    -7.3749949099    -0.6656059221
   91      H       6.3105642396   -10.7347557853    -0.5136757070
   92      H       4.1485968866   -11.0397310294     1.0973414454
   93      H       6.7934360804     6.1480388584     0.5957231404
   94      C       5.5205257747     6.3719534635     2.2937465806
   95      H       5.0942013197     6.6787317596     0.3165542440
   96      H       5.8245384879     5.4870566595     2.8670073560
   97      H       4.4830629426     6.5023549240     2.6276377768
   98      C       6.1110592067     7.7638194354     2.6613787093
   99      H       6.4344860721     8.3437803185     1.7891502778
  100      C       7.3913177264     7.6080975843     3.5124073973
  101      H       5.3210328351     8.3479306341     3.1483668403
  102      H       7.7042522072     8.6317721650     3.7518992832
  103      H       8.1612203673     7.2035876414     2.8441779234
  104      C       7.3820465898     6.8960643090     4.9086368415
  105      H       6.7644554307     7.5975719692     5.4814746571
  106      C       8.7687807273     6.5337892339     5.3995881649
  107      H       6.8510003187     5.9382850363     4.8353107020
  108      H       8.7645537731     6.0311171090     6.3743244717
  109      H       9.3258491525     7.4752379173     5.3215103436
  110      H       9.1905604179     5.8035718529     4.6976084865
 ----------------------------------------------------------------
 Molecular Point Group                 C1    NOp =  1
 Largest Abelian Subgroup              C1    NOp =  1
 Nuclear Repulsion Energy = 10913.0403563971 hartrees
 There are      270 alpha and      270 beta electrons
 Requested basis set is 6-31G(d,p)
 There are 406 shells and 1262 basis functions

 Total QAlloc Memory Limit  20000 MB
 Mega-Array Size      4888 MB
 MEM_STATIC part      5000 MB
 A cutoff of  1.0D-08 yielded  14244 shell pairs
 There are    143140 function pairs
 
 -------------------------------------------------------
 OpenMP Integral Computing Module                       
 Release: version 1.0, May 2013, Q-Chem Inc. Pittsburgh 
 -------------------------------------------------------
 Integral Job Info:
 Integral job number is                      11
 Integral operator is                         1
 short-range coefficients                     0
 long-range coefficients              100000000
 Omega coefficients                           0
 if combine SR and LR in K                    0
 Integral screening is                        0
 Integral computing path is                   2
 max size of driver memory is            800000
 size of driver memory is                593474
 size of scratch memory is             15166112
 max col of scratch BK array               1296
 max len of scratch array in speh3          155
 max len of scratch index in speh4           18
 max int batch size is                      520
 min int batch size is                       52
 fixed nKL is                                52
 max L of basis functions is                  2
 order of int derivative is                   0
 number of shells is                        406
 number of basis is                        1262
 number of cartesian basis is              1262
 number of contracted shell pairs         14244
 number of primitive shell pairs          44685
 maxK2 (contraction) of shell pair           36
 max number of K2 of shell pair               1
 max number of CS2 of shell pair           1368
 max number of PS2 of shell pair           8124
 mem total for path MDJ                  290776
 -------------------------------------------------------
 Smallest overlap matrix eigenvalue = 4.13E-04

 Scale SEOQF with 1.000000e-02/1.000000e-02/1.000000e-02

 Standard Electronic Orientation quadrupole field applied
 Nucleus-field energy     =     0.0000001412 hartrees
 Guess from superposition of atomic densities
 Warning:  Energy on first SCF cycle will be non-variational
 A restricted hybrid HF-DFT SCF calculation will be
 performed using Pulay DIIS extrapolation
 Exchange:     0.2000 Hartree-Fock + 0.0800 Slater + 0.7200 B88
 Correlation:  0.1900 VWN1RPA + 0.8100 LYP
 Using SG-1 standard quadrature grid
 SCF converges when DIIS error is below 1.0E-05
 using 16 threads for integral computing 
 -------------------------------------------------------
 OpenMP BLAS3 based DFT computing Module                
 Release: version 1.0, May 2013, Q-Chem Inc. Pittsburgh 
 -------------------------------------------------------
 ---------------------------------------
  Cycle       Energy         DIIS Error
 ---------------------------------------
    1   -5680.0771584879      2.15E-02
    2   -5662.4718367788      2.16E-03
    3   -5660.8893276589      3.45E-03
    4   -5663.2989025565      9.48E-04
    5   -5663.4555952492      4.09E-04
    6   -5663.4746474345      2.66E-04
    7   -5663.4880292500      7.29E-05
    8   -5663.4889941892      2.38E-05
    9   -5663.4891004534      8.23E-06 Convergence criterion met
 ---------------------------------------
 SCF time:  CPU 991.18 s  wall 86.87 s
 SCF   energy in the final basis set = -5663.4891004534
 Total energy in the final basis set = -5663.4891004534
 
 --------------------------------------------------------------
 
                    Orbital Energies (a.u.)
 --------------------------------------------------------------
 
 Alpha MOs
 -- Occupied --
-88.991 -88.987 -88.934 -88.932 -88.931 -88.921 -88.911 -88.905
-14.392 -14.389 -14.382 -14.379 -14.350 -14.344 -14.344 -14.340
-14.333 -14.326 -10.275 -10.263 -10.263 -10.262 -10.255 -10.254
-10.254 -10.253 -10.251 -10.248 -10.240 -10.238 -10.237 -10.236
-10.236 -10.234 -10.234 -10.233 -10.229 -10.228 -10.228 -10.228
-10.226 -10.226 -10.225 -10.224 -10.222 -10.222 -10.219 -10.216
-10.215 -10.213 -10.211 -10.208 -10.204 -10.203 -10.200 -10.194
-10.184 -10.183 -10.180 -10.180 -10.179 -10.177 -10.177 -10.174
-10.174 -10.172 -10.171 -10.170  -8.046  -8.044  -7.994  -7.993
 -7.991  -7.979  -7.971  -7.964  -6.011  -6.009  -6.005  -6.004
 -6.003  -6.002  -5.958  -5.957  -5.956  -5.954  -5.954  -5.952
 -5.951  -5.950  -5.948  -5.943  -5.939  -5.936  -5.936  -5.932
 -5.929  -5.927  -5.925  -5.920  -1.057  -1.036  -0.978  -0.971
 -0.964  -0.948  -0.941  -0.930  -0.920  -0.909  -0.906  -0.900
 -0.837  -0.833  -0.833  -0.829  -0.816  -0.812  -0.809  -0.809
 -0.808  -0.797  -0.795  -0.792  -0.787  -0.778  -0.773  -0.764
 -0.754  -0.746  -0.737  -0.736  -0.730  -0.720  -0.713  -0.705
 -0.695  -0.690  -0.676  -0.671  -0.655  -0.654  -0.650  -0.642
 -0.640  -0.635  -0.627  -0.624  -0.613  -0.602  -0.602  -0.597
 -0.597  -0.591  -0.585  -0.581  -0.576  -0.575  -0.564  -0.555
 -0.554  -0.546  -0.543  -0.542  -0.525  -0.523  -0.518  -0.512
 -0.510  -0.507  -0.500  -0.495  -0.489  -0.487  -0.481  -0.478
 -0.474  -0.473  -0.472  -0.470  -0.466  -0.465  -0.455  -0.449
 -0.443  -0.441  -0.439  -0.436  -0.435  -0.435  -0.434  -0.428
 -0.428  -0.425  -0.423  -0.422  -0.418  -0.417  -0.416  -0.413
 -0.409  -0.407  -0.406  -0.401  -0.397  -0.397  -0.395  -0.394
 -0.394  -0.393  -0.392  -0.389  -0.389  -0.388  -0.385  -0.384
 -0.380  -0.378  -0.374  -0.371  -0.365  -0.365  -0.360  -0.357
 -0.354  -0.351  -0.346  -0.345  -0.344  -0.344  -0.342  -0.341
 -0.340  -0.339  -0.331  -0.331  -0.330  -0.328  -0.319  -0.316
 -0.312  -0.310  -0.309  -0.308  -0.302  -0.302  -0.299  -0.298
 -0.297  -0.295  -0.294  -0.292  -0.284  -0.283  -0.281  -0.281
 -0.276  -0.273  -0.268  -0.264  -0.260  -0.255  -0.254  -0.248
 -0.246  -0.242  -0.234  -0.233  -0.195  -0.195
 -- Virtual --
 -0.117  -0.108  -0.078  -0.070  -0.040  -0.037  -0.031  -0.027
 -0.026  -0.020  -0.018  -0.013  -0.008  -0.005   0.003   0.006
  0.007   0.010   0.013   0.018   0.022   0.024   0.027   0.030
  0.047   0.048   0.056   0.062   0.067   0.071   0.072   0.088
  0.090   0.093   0.099   0.099   0.104   0.106   0.109   0.110
  0.112   0.112   0.113   0.118   0.121   0.121   0.124   0.125
  0.127   0.129   0.131   0.133   0.134   0.137   0.141   0.144
  0.148   0.151   0.153   0.156   0.158   0.160   0.161   0.163
  0.166   0.170   0.171   0.174   0.178   0.179   0.181   0.185
  0.187   0.192   0.194   0.197   0.198   0.199   0.200   0.201
  0.204   0.210   0.213   0.214   0.215   0.216   0.221   0.222
  0.224   0.226   0.231   0.232   0.234   0.239   0.241   0.242
  0.244   0.246   0.248   0.254   0.257   0.258   0.259   0.260
  0.264   0.266   0.268   0.270   0.274   0.275   0.278   0.282
  0.285   0.286   0.290   0.291   0.295   0.297   0.298   0.303
  0.307   0.310   0.314   0.317   0.318   0.319   0.322   0.324
  0.326   0.329   0.332   0.337   0.339   0.340   0.344   0.346
  0.350   0.354   0.354   0.355   0.357   0.359   0.368   0.370
  0.372   0.376   0.378   0.381   0.383   0.384   0.389   0.397
  0.399   0.403   0.407   0.412   0.418   0.425   0.429   0.432
  0.435   0.445   0.449   0.451   0.457   0.459   0.464   0.466
  0.471   0.472   0.478   0.482   0.483   0.490   0.491   0.493
  0.502   0.503   0.507   0.509   0.510   0.513   0.514   0.515
  0.520   0.523   0.526   0.528   0.528   0.531   0.533   0.534
  0.535   0.537   0.540   0.540   0.542   0.547   0.548   0.549
  0.551   0.553   0.556   0.559   0.561   0.562   0.564   0.565
  0.566   0.570   0.571   0.571   0.576   0.577   0.579   0.580
  0.584   0.585   0.587   0.590   0.591   0.593   0.596   0.599
  0.600   0.603   0.606   0.607   0.610   0.612   0.615   0.618
  0.621   0.623   0.623   0.624   0.626   0.628   0.629   0.631
  0.632   0.634   0.635   0.637   0.641   0.641   0.643   0.647
  0.652   0.654   0.656   0.659   0.661   0.666   0.668   0.669
  0.670   0.671   0.678   0.683   0.685   0.686   0.688   0.691
  0.695   0.701   0.705   0.708   0.708   0.711   0.717   0.724
  0.725   0.729   0.732   0.734   0.734   0.738   0.738   0.743
  0.748   0.749   0.753   0.755   0.757   0.760   0.762   0.766
  0.767   0.772   0.775   0.782   0.784   0.785   0.787   0.792
  0.793   0.794   0.796   0.798   0.800   0.803   0.806   0.808
  0.811   0.815   0.816   0.818   0.819   0.821   0.822   0.828
  0.830   0.831   0.832   0.832   0.835   0.836   0.837   0.839
  0.839   0.841   0.843   0.845   0.846   0.847   0.850   0.852
  0.853   0.855   0.857   0.860   0.865   0.867   0.869   0.871
  0.875   0.876   0.879   0.880   0.881   0.884   0.884   0.889
  0.892   0.894   0.898   0.899   0.902   0.905   0.909   0.909
  0.911   0.913   0.916   0.919   0.920   0.923   0.927   0.928
  0.928   0.931   0.936   0.939   0.945   0.947   0.950   0.950
  0.951   0.952   0.955   0.957   0.957   0.958   0.961   0.963
  0.964   0.969   0.975   0.976   0.978   0.980   0.984   0.987
  0.990   0.993   0.995   0.997   0.999   1.002   1.005   1.006
  1.006   1.010   1.013   1.017   1.020   1.023   1.026   1.027
  1.028   1.032   1.036   1.038   1.040   1.044   1.045   1.048
  1.050   1.056   1.061   1.065   1.069   1.072   1.073   1.077
  1.080   1.085   1.088   1.091   1.093   1.096   1.099   1.103
  1.109   1.113   1.118   1.122   1.132   1.135   1.139   1.144
  1.148   1.151   1.155   1.159   1.160   1.168   1.173   1.182
  1.189   1.197   1.199   1.209   1.217   1.218   1.220   1.226
  1.232   1.234   1.246   1.248   1.253   1.255   1.261   1.264
  1.267   1.272   1.275   1.281   1.285   1.289   1.293   1.299
  1.305   1.310   1.311   1.318   1.321   1.331   1.336   1.339
  1.342   1.349   1.353   1.355   1.358   1.359   1.362   1.365
  1.368   1.368   1.374   1.376   1.380   1.385   1.385   1.395
  1.398   1.407   1.411   1.414   1.420   1.423   1.428   1.429
  1.431   1.440   1.442   1.451   1.456   1.461   1.464   1.470
  1.475   1.480   1.482   1.488   1.490   1.499   1.508   1.510
  1.515   1.517   1.524   1.530   1.540   1.548   1.548   1.556
  1.562   1.574   1.581   1.589   1.591   1.598   1.603   1.607
  1.615   1.621   1.627   1.629   1.632   1.641   1.646   1.656
  1.658   1.661   1.669   1.671   1.674   1.678   1.684   1.687
  1.690   1.692   1.694   1.696   1.699   1.706   1.708   1.708
  1.712   1.717   1.723   1.729   1.733   1.736   1.742   1.754
  1.760   1.761   1.766   1.767   1.771   1.772   1.778   1.779
  1.786   1.791   1.793   1.794   1.798   1.803   1.807   1.812
  1.821   1.827   1.828   1.831   1.838   1.841   1.844   1.852
  1.853   1.855   1.859   1.863   1.867   1.868   1.870   1.876
  1.878   1.880   1.882   1.887   1.888   1.892   1.894   1.894
  1.898   1.904   1.911   1.913   1.914   1.921   1.923   1.927
  1.929   1.931   1.932   1.939   1.940   1.942   1.951   1.955
  1.958   1.962   1.966   1.970   1.976   1.983   1.985   1.986
  1.988   1.989   1.990   1.992   1.995   2.009   2.010   2.013
  2.018   2.028   2.036   2.040   2.049   2.054   2.056   2.070
  2.080   2.092   2.094   2.097   2.101   2.103   2.104   2.106
  2.108   2.110   2.111   2.114   2.121   2.122   2.126   2.128
  2.134   2.137   2.138   2.144   2.145   2.146   2.149   2.158
  2.163   2.165   2.169   2.174   2.179   2.180   2.182   2.186
  2.188   2.190   2.194   2.196   2.205   2.215   2.217   2.220
  2.224   2.227   2.232   2.235   2.242   2.245   2.248   2.250
  2.255   2.260   2.264   2.267   2.270   2.270   2.281   2.284
  2.286   2.287   2.290   2.294   2.302   2.307   2.309   2.312
  2.315   2.316   2.319   2.321   2.325   2.328   2.333   2.339
  2.344   2.345   2.346   2.350   2.353   2.362   2.366   2.368
  2.371   2.373   2.378   2.381   2.382   2.388   2.390   2.392
  2.396   2.399   2.402   2.406   2.409   2.411   2.417   2.421
  2.423   2.427   2.430   2.431   2.436   2.437   2.442   2.444
  2.451   2.457   2.459   2.461   2.463   2.466   2.470   2.472
  2.477   2.482   2.485   2.488   2.492   2.493   2.499   2.503
  2.504   2.507   2.509   2.517   2.522   2.523   2.526   2.531
  2.536   2.537   2.539   2.545   2.547   2.549   2.553   2.557
  2.559   2.565   2.571   2.577   2.586   2.588   2.598   2.602
  2.607   2.613   2.620   2.628   2.628   2.634   2.636   2.647
  2.648   2.653   2.654   2.659   2.661   2.667   2.672   2.673
  2.674   2.680   2.685   2.690   2.694   2.698   2.699   2.703
  2.707   2.711   2.712   2.714   2.720   2.725   2.730   2.736
  2.746   2.747   2.754   2.756   2.772   2.775   2.779   2.780
  2.790   2.796   2.809   2.811   2.812   2.817   2.825   2.834
  2.839   2.839   2.842   2.851   2.852   2.853   2.856   2.857
  2.864   2.873   2.885   2.887   2.889   2.897   2.904   2.906
  2.908   2.910   2.923   2.926   2.929   2.935   2.951   2.955
  2.961   2.963   2.975   2.990   2.997   2.999   3.021   3.030
  3.040   3.044   3.061   3.071   3.073   3.076   3.086   3.115
  3.146   3.168   3.191   3.194   3.203   3.215   3.232   3.234
  3.236   3.241   3.245   3.246   3.260   3.262   3.264   3.270
  3.280   3.283   3.292   3.299   3.309   3.323   3.332   3.338
  3.347   3.359   3.368   3.377   3.382   3.420   3.433   3.436
  3.438   3.449   3.458   3.468   3.486   3.488   3.522   3.527
  3.544   3.566   3.578   3.584   3.590   3.591   3.598   3.603
  3.613   3.620   3.722   3.730   3.852   3.853   3.892   3.893
  3.930   3.936   3.944   3.948   3.950   3.954   3.977   3.991
  4.003   4.036   4.059   4.088   4.102   4.107   4.111   4.129
  4.136   4.140   4.143   4.152   4.155   4.156   4.172   4.181
  4.195   4.216   4.216   4.237   4.244   4.253   4.261   4.264
  4.279   4.286   4.319   4.329   4.349   4.363   4.379   4.383
  4.404   4.406   4.438   4.445   4.457   4.459   4.487   4.498
  4.501   4.505   4.530   4.539   4.595   4.609   4.657   4.668
  4.681   4.700   4.708   4.732   4.765   4.769   4.781   4.818
 --------------------------------------------------------------
 
          Ground-State Mulliken Net Atomic Charges

     Atom                 Charge (a.u.)
  ----------------------------------------
      1 C                     0.267230
      2 C                    -0.146046
      3 N                    -0.483709
      4 C                    -0.083356
      5 C                     0.097794
      6 C                     0.046142
      7 C                     0.026307
      8 C                     0.037074
      9 C                     0.239833
     10 N                    -0.473012
     11 N                    -0.531431
     12 C                     0.155234
     13 C                     0.221736
     14 S                     0.603416
     15 N                    -0.476776
     16 C                    -0.215224
     17 S                     0.343922
     18 C                    -0.105812
     19 C                    -0.225197
     20 S                     0.251583
     21 C                     0.138562
     22 C                     0.046937
     23 C                    -0.303909
     24 C                    -0.063017
     25 N                    -0.425684
     26 S                     0.297449
     27 C                     0.112143
     28 C                    -0.313012
     29 C                    -0.229785
     30 H                     0.107609
     31 H                     0.099381
     32 H                     0.106990
     33 H                     0.110236
     34 H                     0.129627
     35 H                     0.110634
     36 H                     0.116479
     37 H                     0.134511
     38 H                     0.115023
     39 C                    -0.184782
     40 H                     0.120942
     41 H                     0.090472
     42 H                     0.117885
     43 C                    -0.190302
     44 H                     0.101611
     45 C                    -0.172569
     46 H                     0.091711
     47 H                     0.082082
     48 H                     0.090436
     49 C                    -0.182065
     50 H                     0.113369
     51 C                    -0.326051
     52 H                     0.090169
     53 H                     0.100908
     54 H                     0.099516
     55 H                     0.102084
     56 C                     0.281963
     57 C                    -0.099850
     58 N                    -0.496136
     59 C                    -0.096058
     60 C                     0.047062
     61 C                     0.067326
     62 C                     0.038014
     63 C                     0.052903
     64 C                     0.257124
     65 N                    -0.512646
     66 N                    -0.596064
     67 C                     0.161202
     68 C                     0.294952
     69 S                     0.616846
     70 N                    -0.544308
     71 C                    -0.203815
     72 S                     0.312523
     73 C                    -0.111879
     74 C                    -0.226470
     75 S                     0.268735
     76 C                     0.159322
     77 C                     0.068574
     78 C                    -0.302398
     79 C                    -0.050559
     80 N                    -0.424407
     81 S                     0.270083
     82 C                     0.129719
     83 C                    -0.317089
     84 C                    -0.235984
     85 H                     0.100300
     86 H                     0.116415
     87 H                     0.099345
     88 H                     0.124255
     89 H                     0.130977
     90 H                     0.121644
     91 H                     0.123514
     92 H                     0.134693
     93 H                     0.117961
     94 C                    -0.183320
     95 H                     0.127955
     96 H                     0.099530
     97 H                     0.086831
     98 C                    -0.200507
     99 H                     0.104718
    100 C                    -0.178088
    101 H                     0.090627
    102 H                     0.084567
    103 H                     0.090374
    104 C                    -0.170527
    105 H                     0.091245
    106 C                    -0.310355
    107 H                     0.089239
    108 H                     0.103630
    109 H                     0.103507
    110 H                     0.107491
  ----------------------------------------
  Sum of atomic charges =     0.000000

 -----------------------------------------------------------------
                    Cartesian Multipole Moments
 -----------------------------------------------------------------
    Charge (ESU x 10^10)
                 0.0000
    Dipole Moment (Debye)
         X      -2.5702      Y      -3.0952      Z       1.8719
       Tot       4.4374
    Quadrupole Moments (Debye-Ang)
        XX    -406.7783     XY       1.7628     YY    -398.9706
        XZ      10.3379     YZ      -2.1758     ZZ    -443.6907
    Octopole Moments (Debye-Ang^2)
       XXX    -909.5305    XXY    -392.5387    XYY     152.5213
       YYY    -516.9002    XXZ     -10.1969    XYZ     112.5349
       YYZ      81.8175    XZZ    -142.3457    YZZ     -15.9818
       ZZZ      18.9287
    Hexadecapole Moments (Debye-Ang^3)
      XXXX -105554.2445   XXXY    2569.5160   XXYY  -27273.4110
      XYYY   -2558.2722   YYYY  -45184.9641   XXXZ   -1725.6625
      XXYZ    -813.6601   XYYZ    -115.0236   YYYZ    -353.9087
      XXZZ  -20163.4701   XYZZ     345.8705   YYZZ  -10481.5737
      XZZZ    -272.7458   YZZZ    -259.0519   ZZZZ   -9763.3463
 -----------------------------------------------------------------
Archival summary:
1\1\mn426\SP\ProcedureUnspecified\6-31G**\8105042\afmv_a\SatOct616:57:222018SatOct616:57:222018\0\\#,ProcedureUnspecified,6-31G**,\\0,1\S\N,1,1.61299\C,2,1.36046,1,107.764\C,3,1.39865,2,112.275,1,6.46204,0\N,4,1.36149,3,114.903,2,-9.9825,0\C,4,1.4052,3,119.312,2,174.662,0\C,6,1.36705,4,117.247,3,5.32124,0\H,7,1.08924,6,125.605,4,169.664,0\N,7,1.32995,6,122.539,4,-7.25792,0\C,9,1.34466,7,123.236,6,2.24856,0\C,10,1.43614,9,117.732,7,168.367,0\C,11,1.38876,10,124.14,9,20.9184,0\C,12,1.33093,11,116.727,10,-176.04,0\C,13,1.40253,12,117.398,11,5.34228,0\C,14,1.46049,13,122.872,12,172.245,0\N,15,1.30458,14,119.591,13,20.166,0\C,16,1.37919,15,112.011,14,160.931,0\H,17,1.08199,16,116.611,15,-172.423,0\C,17,1.37374,16,112.306,15,10.3913,0\H,19,1.08248,17,125.515,16,178.22,0\C,13,1.48655,12,108.208,11,175.864,0\H,21,1.08421,13,118.495,12,-175.961,0\C,21,1.36851,13,114.839,12,11.1954,0\H,23,1.0819,21,125.776,13,-179.632,0\C,6,1.51491,4,119.874,3,-177.111,0\C,25,1.39276,6,117.828,4,155.56,0\H,26,1.08875,25,117.785,6,-3.48523,0\N,26,1.37428,25,126.535,6,174.132,0\C,28,1.33174,26,115.459,25,-5.17034,0\C,29,1.3882,28,125.443,26,10.6642,0\H,30,1.08606,29,123.329,28,-179.202,0\C,30,1.40984,29,116.265,28,-11.199,0\H,32,1.08612,30,115.562,29,-168.556,0\C,29,1.49843,28,115.984,26,-166.251,0\H,34,1.09643,29,109.04,28,-107.87,0\H,34,1.09749,29,109.377,28,12.9898,0\C,34,1.51383,29,117.146,28,137.009,0\H,37,1.09731,34,104.169,29,-40.2487,0\H,37,1.09764,34,117.308,29,70.9159,0\C,37,1.55601,34,113.982,29,-172.205,0\H,40,1.09624,37,113.404,34,-10.9725,0\H,40,1.09658,37,107.937,34,-128.715,0\C,40,1.54517,37,110.758,34,105.899,0\H,43,1.09677,40,106.453,37,-69.9244,0\H,43,1.0969,40,105.223,37,177.764,0\C,43,1.56733,40,122.108,37,60.7902,0\H,46,1.09621,43,100.261,40,66.0644,0\H,46,1.0976,43,109.863,40,-48.2646,0\C,46,1.51503,43,113.072,40,-164.98,0\H,49,1.0967,46,103.686,43,-52.0976,0\H,49,1.09673,46,113.209,43,179.727,0\H,49,1.09722,46,107.678,43,63.6638,0\S,15,1.73382,14,123.794,13,-169.741,0\S,14,1.7834,13,107.785,12,-10.5978,0\S,23,1.78879,21,112.277,13,-4.1293,0\H,35,2.25248,34,161.968,29,134.112,0\C,56,1.09673,35,124.22,34,-85.5458,0\H,57,1.09691,56,104.376,35,-141.464,0\H,57,1.09736,56,114.549,35,106.957,0\C,57,1.58069,56,107.31,35,-24.0571,0\H,60,1.0962,57,117.069,56,62.3955,0\H,60,1.09729,57,106.34,56,176.592,0\C,60,1.51684,57,109.653,56,-67.5694,0\H,63,1.09631,60,113.168,57,-53.3481,0\H,63,1.09637,60,107.472,57,65.8649,0\C,63,1.54209,60,114.663,57,-176.028,0\H,66,1.09683,63,104.552,60,-64.1431,0\H,66,1.09687,63,111.936,60,55.0336,0\C,66,1.58482,63,115.003,60,179.117,0\H,69,1.097,66,104.349,63,29.3001,0\H,69,1.09731,66,109.687,63,-89.4315,0\C,69,1.59337,66,110.072,63,145.568,0\H,72,1.0973,69,109.796,66,-60.8731,0\H,72,1.09731,69,108.82,66,58.9178,0\C,72,1.50535,69,109.392,66,-177.957,0\N,75,1.36369,72,114.648,69,-75.5333,0\C,76,1.35084,75,119.857,72,-179.526,0\H,77,1.08899,76,118.21,75,177.541,0\C,77,1.38806,76,124.019,75,-5.19213,0\C,79,1.41587,77,117.235,76,6.76343,0\H,80,1.08611,79,120.354,77,176.695,0\C,80,1.41285,79,119.748,77,0.687526,0\H,82,1.08599,80,121.797,79,177.82,0\C,79,1.51001,77,122.296,76,-173.995,0\C,84,1.40347,79,123.074,77,-142.271,0\H,85,1.08966,84,121.915,79,2.47797,0\N,85,1.3765,84,123.403,79,-165.48,0\C,87,1.35555,85,118.153,84,-5.14668,0\C,84,1.41941,79,119.968,77,53.317,0\N,89,1.30585,84,123.212,79,-8.03041,0\C,89,1.36769,84,123.939,79,175.223,0\N,91,1.353,89,117.508,84,-169.909,0\C,88,1.48926,87,114.483,85,-173.497,0\C,93,1.39704,88,122.83,87,137.142,0\C,94,1.38655,93,112.943,88,-179.421,0\C,95,1.36776,94,116.224,93,-8.14616,0\C,96,1.45317,95,125.636,94,179.055,0\N,97,1.33977,96,112.051,95,177.078,0\C,98,1.38238,97,109.105,96,164.116,0\H,99,1.08174,98,120.245,97,-178.138,0\C,99,1.3754,98,113.228,97,-10.6229,0\H,101,1.0821,99,126.611,98,-178.637,0\C,95,1.45819,94,110.484,93,176.284,0\H,103,1.08457,95,121.155,94,173.474,0\C,103,1.39392,95,110.487,94,-2.38784,0\H,105,1.08238,103,129.324,95,179.355,0\S,90,1.61695,89,105.561,84,178.668,0\S,97,1.68834,96,127.831,95,-26.7071,0\S,93,1.75983,88,127.173,87,-49.8268,0\S,94,1.76538,93,129.099,88,-8.18187,0\\\@

 Total job time:  90.77s(wall), 1003.01s(cpu) 
 Sat Oct  6 16:57:22 2018

        *************************************************************
        *                                                           *
        *  Thank you very much for using Q-Chem.  Have a nice day.  *
        *                                                           *
        *************************************************************


